-2.576343688964843750e+02
-2.572308654785156250e+02
-2.579516601562500000e+02
-2.523180999755859375e+02
-2.568162231445312500e+02
-2.565523681640625000e+02
-2.507552032470703125e+02
-2.543540954589843750e+02
-2.572424621582031250e+02
-2.566765441894531250e+02
-2.549409637451171875e+02
-2.498444519042968750e+02
-2.549137878417968750e+02
-2.568442687988281250e+02
-2.569603576660156250e+02
-2.561047363281250000e+02
-2.518503265380859375e+02
-2.537098846435546875e+02
-2.579708862304687500e+02
-2.569898071289062500e+02
-2.572807312011718750e+02
-2.541230773925781250e+02
-2.517530517578125000e+02
-2.535700378417968750e+02
-2.571920776367187500e+02
-2.571885070800781250e+02
-2.538880767822265625e+02
-2.570296936035156250e+02
-2.519749450683593750e+02
-2.523544158935546875e+02
-2.566114501953125000e+02
-2.549584350585937500e+02
-2.579063720703125000e+02
-2.578744201660156250e+02
-2.523019409179687500e+02
-2.569039916992187500e+02
-2.545051879882812500e+02
-2.556925506591796875e+02
-2.570646667480468750e+02
-2.578863525390625000e+02
-2.506742706298828125e+02
-2.536730346679687500e+02
-2.547277679443359375e+02
-2.569824523925781250e+02
-2.519688720703125000e+02
-2.510850219726562500e+02
-2.579641113281250000e+02
-2.564548950195312500e+02
-2.569895019531250000e+02
-2.451288909912109375e+02
-2.534816589355468750e+02
-2.548487548828125000e+02
-2.567043151855468750e+02
-2.494690399169921875e+02
-2.577442321777343750e+02
-2.535309295654296875e+02
-2.551516265869140625e+02
-2.527325134277343750e+02
-2.570558471679687500e+02
-2.507331695556640625e+02
-2.578305358886718750e+02
-2.580709838867187500e+02
-2.539315490722656250e+02
-2.536124877929687500e+02
-2.576978149414062500e+02
-2.574621276855468750e+02
-2.579917907714843750e+02
-2.574794311523437500e+02
-2.569206848144531250e+02
-2.576400756835937500e+02
-2.541882476806640625e+02
-2.568204956054687500e+02
-2.571529235839843750e+02
-2.553425445556640625e+02
-2.578803405761718750e+02
-2.566375122070312500e+02
-2.575807495117187500e+02
-2.564633789062500000e+02
-2.564792480468750000e+02
-2.511874389648437500e+02
-2.573064880371093750e+02
-2.546652069091796875e+02
-2.577495727539062500e+02
-2.524059448242187500e+02
-2.579662475585937500e+02
-2.566772460937500000e+02
-2.574576110839843750e+02
-2.577740173339843750e+02
-2.542706909179687500e+02
-2.546635589599609375e+02
-2.580372924804687500e+02
-2.569229125976562500e+02
-2.578501892089843750e+02
-2.576699829101562500e+02
-2.563911743164062500e+02
-2.578595581054687500e+02
-2.559350433349609375e+02
-2.532411346435546875e+02
-2.522837524414062500e+02
-2.579258728027343750e+02
-2.580867919921875000e+02
-2.577392578125000000e+02
-2.550096588134765625e+02
-2.559125061035156250e+02
-2.580619812011718750e+02
-2.545339813232421875e+02
-2.533970489501953125e+02
-2.555507202148437500e+02
-2.567739257812500000e+02
-2.531617431640625000e+02
-2.559766845703125000e+02
-2.515954284667968750e+02
-2.530447998046875000e+02
-2.546734619140625000e+02
-2.565609130859375000e+02
-2.570947570800781250e+02
-2.571350097656250000e+02
-2.575833129882812500e+02
-2.567460937500000000e+02
-2.564028625488281250e+02
-2.562787780761718750e+02
-2.555409393310546875e+02
-2.533595581054687500e+02
-2.534245910644531250e+02
-2.495876770019531250e+02
-2.567006530761718750e+02
-2.579972534179687500e+02
-2.567519836425781250e+02
-2.570798034667968750e+02
-2.575352478027343750e+02
-2.580131835937500000e+02
-2.579897766113281250e+02
-2.575074157714843750e+02
-2.576355285644531250e+02
-2.572970886230468750e+02
-2.580804138183593750e+02
-2.572079772949218750e+02
-2.534408416748046875e+02
-2.522259674072265625e+02
-2.442295989990234375e+02
-2.565965881347656250e+02
-2.577898864746093750e+02
-2.571530761718750000e+02
-2.579892883300781250e+02
-2.573564453125000000e+02
-2.565735473632812500e+02
-2.569726257324218750e+02
-2.554305877685546875e+02
-2.502680206298828125e+02
-2.578819274902343750e+02
-2.540348968505859375e+02
-2.579601440429687500e+02
-2.567050476074218750e+02
-2.579095764160156250e+02
-2.536737976074218750e+02
-2.570263366699218750e+02
-2.554187469482421875e+02
-2.486194915771484375e+02
-2.577515563964843750e+02
-2.579408874511718750e+02
-2.571468811035156250e+02
-2.576213989257812500e+02
-2.572026672363281250e+02
-2.552572937011718750e+02
-2.569944458007812500e+02
-2.563784790039062500e+02
-2.568770141601562500e+02
-2.537583618164062500e+02
-2.522066192626953125e+02
-2.535419921875000000e+02
-2.513705902099609375e+02
-2.573114013671875000e+02
-2.546492919921875000e+02
-2.516246643066406250e+02
-2.574454956054687500e+02
-2.567557983398437500e+02
-2.567010803222656250e+02
-2.566119079589843750e+02
-2.567507324218750000e+02
-2.556117248535156250e+02
-2.543448486328125000e+02
-2.567501831054687500e+02
-2.557817840576171875e+02
-2.532644195556640625e+02
-2.579038391113281250e+02
-2.546124725341796875e+02
-2.547811279296875000e+02
-2.580768127441406250e+02
-2.524175262451171875e+02
-2.567405700683593750e+02
-2.527783508300781250e+02
-2.571117553710937500e+02
-2.571923828125000000e+02
-2.580006103515625000e+02
-2.568334350585937500e+02
-2.560285339355468750e+02
-2.566938476562500000e+02
-2.531831970214843750e+02
-2.578411560058593750e+02
-2.570940246582031250e+02
-2.556482849121093750e+02
-2.567566528320312500e+02
-2.508183441162109375e+02
-2.494419555664062500e+02
-2.558284606933593750e+02
-2.539071197509765625e+02
-2.520653076171875000e+02
-2.559394531250000000e+02
-2.574092102050781250e+02
-2.505844421386718750e+02
-2.530252532958984375e+02
-2.578765563964843750e+02
-2.565386352539062500e+02
-2.574268798828125000e+02
-2.564951782226562500e+02
-2.579505615234375000e+02
-2.580714111328125000e+02
-2.575900878906250000e+02
-2.567031250000000000e+02
-2.568046264648437500e+02
-2.575751342773437500e+02
-2.540061645507812500e+02
-2.570358886718750000e+02
-2.532338104248046875e+02
-2.485227661132812500e+02
-2.528250732421875000e+02
-2.500823822021484375e+02
-2.572287902832031250e+02
-2.568759765625000000e+02
-2.573650207519531250e+02
-2.555309143066406250e+02
-2.563145141601562500e+02
-2.570030517578125000e+02
-2.569685363769531250e+02
-2.571854553222656250e+02
-2.532130889892578125e+02
-2.558945312500000000e+02
-2.561393127441406250e+02
-2.577164306640625000e+02
-2.572784118652343750e+02
-2.565874938964843750e+02
-2.576250915527343750e+02
-2.541296844482421875e+02
-2.517140045166015625e+02
-2.488845214843750000e+02
-2.556617736816406250e+02
-2.575016784667968750e+02
-2.548420104980468750e+02
-2.569609375000000000e+02
-2.541706390380859375e+02
-2.473391723632812500e+02
-2.527739105224609375e+02
-2.563659667968750000e+02
-2.559850311279296875e+02
-2.574598388671875000e+02
-2.525644226074218750e+02
-2.510760803222656250e+02
-2.533352813720703125e+02
-2.510383911132812500e+02
-2.577603454589843750e+02
-2.577122192382812500e+02
-2.506644287109375000e+02
-2.541895599365234375e+02
-2.562837524414062500e+02
-2.568326416015625000e+02
-2.543419342041015625e+02
-2.554062500000000000e+02
-2.539514617919921875e+02
-2.490652313232421875e+02
-2.553475799560546875e+02
-2.565439453125000000e+02
-2.568385620117187500e+02
-2.542325134277343750e+02
-2.580304565429687500e+02
-2.534105072021484375e+02
-2.576359863281250000e+02
-2.556624908447265625e+02
-2.570630798339843750e+02
-2.511763153076171875e+02
-2.533739471435546875e+02
-2.569391174316406250e+02
-2.575565795898437500e+02
-2.568048400878906250e+02
-2.557061767578125000e+02
-2.572131042480468750e+02
-2.552216796875000000e+02
-2.565961303710937500e+02
-2.539804687500000000e+02
-2.560282287597656250e+02
-2.516530761718750000e+02
-2.510528717041015625e+02
-2.552367553710937500e+02
-2.577131347656250000e+02
-2.460005340576171875e+02
-2.520364379882812500e+02
-2.576226196289062500e+02
-2.571083984375000000e+02
-2.564539489746093750e+02
-2.555881042480468750e+02
-2.575389709472656250e+02
-2.569737243652343750e+02
-2.578593139648437500e+02
-2.498207092285156250e+02
-2.574763183593750000e+02
-2.525848388671875000e+02
-2.579649963378906250e+02
-2.580461120605468750e+02
-2.527579193115234375e+02
-2.530802459716796875e+02
-2.579631042480468750e+02
-2.535089416503906250e+02
-2.559293212890625000e+02
-2.563562622070312500e+02
-2.575093688964843750e+02
-2.560488586425781250e+02
-2.504108886718750000e+02
-2.523864746093750000e+02
-2.567303466796875000e+02
-2.558097381591796875e+02
-2.525208587646484375e+02
-2.574483032226562500e+02
-2.527444152832031250e+02
-2.564570922851562500e+02
-2.572126159667968750e+02
-2.526811676025390625e+02
-2.540981903076171875e+02
-2.559713439941406250e+02
-2.569209899902343750e+02
-2.580223693847656250e+02
-2.570596313476562500e+02
-2.532732849121093750e+02
-2.577606201171875000e+02
-2.568146057128906250e+02
-2.561394958496093750e+02
-2.515520629882812500e+02
-2.518934020996093750e+02
-2.579804687500000000e+02
-2.536187438964843750e+02
-2.566838684082031250e+02
-2.573037109375000000e+02
-2.580111389160156250e+02
-2.531728515625000000e+02
-2.577683715820312500e+02
-2.570725402832031250e+02
-2.541303558349609375e+02
-2.571783142089843750e+02
-2.557797393798828125e+02
-2.579864501953125000e+02
-2.569492492675781250e+02
-2.574454345703125000e+02
-2.572454833984375000e+02
-2.574457092285156250e+02
-2.577173156738281250e+02
-2.579404602050781250e+02
-2.461854553222656250e+02
-2.567267150878906250e+02
-2.486334075927734375e+02
-2.574987182617187500e+02
-2.578479614257812500e+02
-2.576204528808593750e+02
-2.560575561523437500e+02
-2.575410461425781250e+02
-2.553198089599609375e+02
-2.540690002441406250e+02
-2.571595458984375000e+02
-2.580390014648437500e+02
-2.514646301269531250e+02
-2.572558288574218750e+02
-2.559088134765625000e+02
-2.557609558105468750e+02
-2.569999694824218750e+02
-2.551735229492187500e+02
-2.567143249511718750e+02
-2.538133544921875000e+02
-2.576652221679687500e+02
-2.578396606445312500e+02
-2.512991333007812500e+02
-2.573660278320312500e+02
-2.535466461181640625e+02
-2.552032470703125000e+02
-2.550394592285156250e+02
-2.545545654296875000e+02
-2.547053527832031250e+02
-2.567915039062500000e+02
-2.569804382324218750e+02
-2.574276123046875000e+02
-2.559753112792968750e+02
-2.535684051513671875e+02
-2.535001983642578125e+02
-2.566592407226562500e+02
-2.480164031982421875e+02
-2.569484252929687500e+02
-2.517257995605468750e+02
-2.558747558593750000e+02
-2.493884124755859375e+02
-2.519592437744140625e+02
-2.580403747558593750e+02
-2.552135162353515625e+02
-2.550167083740234375e+02
-2.468459777832031250e+02
-2.580559692382812500e+02
-2.538441009521484375e+02
-2.544760437011718750e+02
-2.551617889404296875e+02
-2.577010803222656250e+02
-2.568339233398437500e+02
-2.534039306640625000e+02
-2.570328063964843750e+02
-2.544307556152343750e+02
-2.569147033691406250e+02
-2.560270996093750000e+02
-2.566867980957031250e+02
-2.579482116699218750e+02
-2.576979980468750000e+02
-2.546457977294921875e+02
-2.569569091796875000e+02
-2.566553344726562500e+02
-2.580014038085937500e+02
-2.571165161132812500e+02
-2.573465270996093750e+02
-2.573104248046875000e+02
-2.572038879394531250e+02
-2.564478759765625000e+02
-2.578749694824218750e+02
-2.550780029296875000e+02
-2.558175506591796875e+02
-2.493638305664062500e+02
-2.559983673095703125e+02
-2.579518737792968750e+02
-2.534162139892578125e+02
-2.574618835449218750e+02
-2.580588073730468750e+02
-2.540239868164062500e+02
-2.563672180175781250e+02
-2.515238647460937500e+02
-2.537371673583984375e+02
-2.580794982910156250e+02
-2.557580566406250000e+02
-2.469587249755859375e+02
-2.554192962646484375e+02
-2.566944885253906250e+02
-2.574845581054687500e+02
-2.572943115234375000e+02
-2.548543395996093750e+02
-2.567218322753906250e+02
-2.571437072753906250e+02
-2.578941040039062500e+02
-2.559326477050781250e+02
-2.537859802246093750e+02
-2.525811462402343750e+02
-2.577097167968750000e+02
-2.578399047851562500e+02
-2.541692352294921875e+02
-2.571880187988281250e+02
-2.522177886962890625e+02
-2.529947509765625000e+02
-2.527881927490234375e+02
-2.561455993652343750e+02
-2.560852355957031250e+02
-2.569842224121093750e+02
-2.560031127929687500e+02
-2.545408477783203125e+02
-2.548623962402343750e+02
-2.535953216552734375e+02
-2.579822387695312500e+02
-2.539173736572265625e+02
-2.553372344970703125e+02
-2.574135131835937500e+02
-2.574132080078125000e+02
-2.528199920654296875e+02
-2.533460235595703125e+02
-2.517536468505859375e+02
-2.554526824951171875e+02
-2.573312683105468750e+02
-2.537315368652343750e+02
-2.568537902832031250e+02
-2.523150634765625000e+02
-2.571625061035156250e+02
-2.523608398437500000e+02
-2.561475219726562500e+02
-2.547298126220703125e+02
-2.524092254638671875e+02
-2.574698486328125000e+02
-2.572772827148437500e+02
-2.572768554687500000e+02
-2.579721069335937500e+02
-2.577721862792968750e+02
-2.540583343505859375e+02
-2.571915588378906250e+02
-2.457553405761718750e+02
-2.520984191894531250e+02
-2.546067810058593750e+02
-2.580010986328125000e+02
-2.548552093505859375e+02
-2.504225616455078125e+02
-2.568681640625000000e+02
-2.547722625732421875e+02
-2.580782165527343750e+02
-2.575836791992187500e+02
-2.567798767089843750e+02
-2.530329437255859375e+02
-2.565839843750000000e+02
-2.571148681640625000e+02
-2.523665924072265625e+02
-2.578105773925781250e+02
-2.556509704589843750e+02
-2.573688964843750000e+02
-2.576873779296875000e+02
-2.542226867675781250e+02
-2.535285491943359375e+02
-2.568192138671875000e+02
-2.566035766601562500e+02
-2.554145507812500000e+02
-2.569817810058593750e+02
-2.564757995605468750e+02
-2.533237152099609375e+02
-2.519391174316406250e+02
-2.519429016113281250e+02
-2.580736389160156250e+02
-2.567229003906250000e+02
-2.580558471679687500e+02
-2.568270263671875000e+02
-2.559080963134765625e+02
-2.547014465332031250e+02
-2.578006896972656250e+02
-2.459853668212890625e+02
-2.580522460937500000e+02
-2.514103851318359375e+02
-2.550108642578125000e+02
-2.554218597412109375e+02
-2.569725341796875000e+02
-2.577900390625000000e+02
-2.579750366210937500e+02
-2.572532348632812500e+02
-2.576553344726562500e+02
-2.531027374267578125e+02
-2.537473144531250000e+02
-2.576958618164062500e+02
-2.559776763916015625e+02
-2.579647216796875000e+02
-2.566880187988281250e+02
-2.575369567871093750e+02
-2.567346191406250000e+02
-2.574667358398437500e+02
-2.571112670898437500e+02
-2.533454284667968750e+02
-2.551004028320312500e+02
-2.539609375000000000e+02
-2.560970153808593750e+02
-2.568772888183593750e+02
-2.564039306640625000e+02
-2.562790527343750000e+02
-2.571283264160156250e+02
-2.537363586425781250e+02
-2.520729827880859375e+02
-2.549722747802734375e+02
-2.555789337158203125e+02
-2.576136169433593750e+02
-2.561699523925781250e+02
-2.568576354980468750e+02
-2.576611022949218750e+02
-2.580725708007812500e+02
-2.560579223632812500e+02
-2.561615905761718750e+02
-2.535085449218750000e+02
-2.549835968017578125e+02
-2.568227539062500000e+02
-2.529296569824218750e+02
-2.578581237792968750e+02
-2.577222595214843750e+02
-2.560222473144531250e+02
-2.572422485351562500e+02
-2.556790008544921875e+02
-2.566380004882812500e+02
-2.533866882324218750e+02
-2.574607238769531250e+02
-2.565204772949218750e+02
-2.573970031738281250e+02
-2.579096984863281250e+02
-2.500570373535156250e+02
-2.545299072265625000e+02
-2.525894927978515625e+02
-2.576944580078125000e+02
-2.574297180175781250e+02
-2.515343780517578125e+02
-2.514909667968750000e+02
-2.580726318359375000e+02
-2.530663909912109375e+02
-2.572772827148437500e+02
-2.522680358886718750e+02
-2.580860290527343750e+02
-2.579929809570312500e+02
-2.486486968994140625e+02
-2.534173583984375000e+02
-2.574769897460937500e+02
-2.579413757324218750e+02
-2.509696807861328125e+02
-2.538477020263671875e+02
-2.580881958007812500e+02
-2.570769042968750000e+02
-2.548802795410156250e+02
-2.521568145751953125e+02
-2.578202514648437500e+02
-2.563975524902343750e+02
-2.527337341308593750e+02
-2.579540405273437500e+02
-2.573804626464843750e+02
-2.536652069091796875e+02
-2.566548461914062500e+02
-2.579352722167968750e+02
-2.569971313476562500e+02
-2.565488281250000000e+02
-2.568068237304687500e+02
-2.576950073242187500e+02
-2.570772705078125000e+02
-2.572201232910156250e+02
-2.580120544433593750e+02
-2.572352905273437500e+02
-2.543454132080078125e+02
-2.563912353515625000e+02
-2.520829010009765625e+02
-2.568062133789062500e+02
-2.561768493652343750e+02
-2.572456359863281250e+02
-2.555450592041015625e+02
-2.578685607910156250e+02
-2.567430114746093750e+02
-2.566168823242187500e+02
-2.574759216308593750e+02
-2.527879180908203125e+02
-2.543649444580078125e+02
-2.546632995605468750e+02
-2.527034454345703125e+02
-2.559394226074218750e+02
-2.579213562011718750e+02
-2.578755798339843750e+02
-2.573666992187500000e+02
-2.579016113281250000e+02
-2.579502258300781250e+02
-2.570115051269531250e+02
-2.578478088378906250e+02
-2.580852050781250000e+02
-2.572612915039062500e+02
-2.548329772949218750e+02
-2.510900421142578125e+02
-2.572793273925781250e+02
-2.533773651123046875e+02
-2.554036865234375000e+02
-2.552854766845703125e+02
-2.567931213378906250e+02
-2.542345581054687500e+02
-2.536765289306640625e+02
-2.566130371093750000e+02
-2.519161376953125000e+02
-2.566915588378906250e+02
-2.578473815917968750e+02
-2.540731658935546875e+02
-2.482239379882812500e+02
-2.552769927978515625e+02
-2.580845642089843750e+02
-2.570260925292968750e+02
-2.514093933105468750e+02
-2.573615112304687500e+02
-2.535482330322265625e+02
-2.539420471191406250e+02
-2.567770996093750000e+02
-2.465338745117187500e+02
-2.560603332519531250e+02
-2.575460205078125000e+02
-2.537888031005859375e+02
-2.575887451171875000e+02
-2.515897979736328125e+02
-2.572780761718750000e+02
-2.569951171875000000e+02
-2.556924591064453125e+02
-2.578594970703125000e+02
-2.580882263183593750e+02
-2.553954620361328125e+02
-2.573739624023437500e+02
-2.573041381835937500e+02
-2.548762969970703125e+02
-2.563862915039062500e+02
-2.574671936035156250e+02
-2.570613098144531250e+02
-2.579066772460937500e+02
-2.562865295410156250e+02
-2.574273681640625000e+02
-2.559182586669921875e+02
-2.570410766601562500e+02
-2.569668579101562500e+02
-2.567286682128906250e+02
-2.566387023925781250e+02
-2.578914794921875000e+02
-2.538362884521484375e+02
-2.523843688964843750e+02
-2.570922546386718750e+02
-2.575717163085937500e+02
-2.559967193603515625e+02
-2.544940338134765625e+02
-2.567690734863281250e+02
-2.530671081542968750e+02
-2.528601989746093750e+02
-2.531365356445312500e+02
-2.573789367675781250e+02
-2.575867919921875000e+02
-2.566225280761718750e+02
-2.578370361328125000e+02
-2.527391357421875000e+02
-2.580113220214843750e+02
-2.511343688964843750e+02
-2.563906860351562500e+02
-2.572082519531250000e+02
-2.565447082519531250e+02
-2.569800720214843750e+02
-2.569954528808593750e+02
-2.568760681152343750e+02
-2.555958404541015625e+02
-2.569917907714843750e+02
-2.570255432128906250e+02
-2.494187469482421875e+02
-2.579501342773437500e+02
-2.529021759033203125e+02
-2.580505065917968750e+02
-2.545980224609375000e+02
-2.536641082763671875e+02
-2.572662048339843750e+02
-2.566705322265625000e+02
-2.580582580566406250e+02
-2.575937500000000000e+02
-2.568415222167968750e+02
-2.567904968261718750e+02
-2.564686889648437500e+02
-2.569477539062500000e+02
-2.555782012939453125e+02
-2.506195068359375000e+02
-2.573952026367187500e+02
-2.572539978027343750e+02
-2.579032592773437500e+02
-2.469007873535156250e+02
-2.453204956054687500e+02
-2.574864501953125000e+02
-2.518179626464843750e+02
-2.536734466552734375e+02
-2.522938842773437500e+02
-2.530179595947265625e+02
-2.555511322021484375e+02
-2.577983398437500000e+02
-2.564407958984375000e+02
-2.536391601562500000e+02
-2.572419433593750000e+02
-2.525279083251953125e+02
-2.565845336914062500e+02
-2.577453613281250000e+02
-2.576608276367187500e+02
-2.556658477783203125e+02
-2.551042327880859375e+02
-2.580231933593750000e+02
-2.573795471191406250e+02
-2.518308868408203125e+02
-2.526672210693359375e+02
-2.571188659667968750e+02
-2.536423492431640625e+02
-2.528805999755859375e+02
-2.519983673095703125e+02
-2.579664001464843750e+02
-2.580580749511718750e+02
-2.533870849609375000e+02
-2.573102722167968750e+02
-2.498424682617187500e+02
-2.580304260253906250e+02
-2.559248657226562500e+02
-2.522659912109375000e+02
-2.576077270507812500e+02
-2.555464630126953125e+02
-2.549707794189453125e+02
-2.566317138671875000e+02
-2.569328308105468750e+02
-2.570085144042968750e+02
-2.523715057373046875e+02
-2.544961090087890625e+02
-2.523972473144531250e+02
-2.548890075683593750e+02
-2.580580444335937500e+02
-2.526371612548828125e+02
-2.568737182617187500e+02
-2.559325256347656250e+02
-2.561286926269531250e+02
-2.547103271484375000e+02
-2.575521240234375000e+02
-2.521116333007812500e+02
-2.569346923828125000e+02
-2.504712371826171875e+02
-2.578205566406250000e+02
-2.555367126464843750e+02
-2.563698425292968750e+02
-2.574032897949218750e+02
-2.579582214355468750e+02
-2.575543518066406250e+02
-2.575511169433593750e+02
-2.553792724609375000e+02
-2.573127136230468750e+02
-2.578305358886718750e+02
-2.568742980957031250e+02
-2.568294067382812500e+02
-2.543450317382812500e+02
-2.553678588867187500e+02
-2.543798217773437500e+02
-2.538518371582031250e+02
-2.580206604003906250e+02
-2.516742706298828125e+02
-2.577591857910156250e+02
-2.580676879882812500e+02
-2.454764099121093750e+02
-2.532059478759765625e+02
-2.573998718261718750e+02
-2.568008422851562500e+02
-2.580758361816406250e+02
-2.559053649902343750e+02
-2.558783111572265625e+02
-2.501940155029296875e+02
-2.580747680664062500e+02
-2.575261840820312500e+02
-2.497537078857421875e+02
-2.480389251708984375e+02
-2.530927886962890625e+02
-2.566890258789062500e+02
-2.576389160156250000e+02
-2.570845336914062500e+02
-2.562024841308593750e+02
-2.571824645996093750e+02
-2.513872222900390625e+02
-2.567967529296875000e+02
-2.571060791015625000e+02
-2.578009948730468750e+02
-2.554508666992187500e+02
-2.563281250000000000e+02
-2.519795837402343750e+02
-2.537926177978515625e+02
-2.482680816650390625e+02
-2.542551269531250000e+02
-2.549319305419921875e+02
-2.550435638427734375e+02
-2.531585083007812500e+02
-2.559474792480468750e+02
-2.557050323486328125e+02
-2.578782958984375000e+02
-2.578062133789062500e+02
-2.568666076660156250e+02
-2.567665405273437500e+02
-2.575352478027343750e+02
-2.510333404541015625e+02
-2.532037963867187500e+02
-2.562447509765625000e+02
-2.531588592529296875e+02
-2.544725799560546875e+02
-2.575054931640625000e+02
-2.558454589843750000e+02
-2.570283508300781250e+02
-2.536953887939453125e+02
-2.558033599853515625e+02
-2.541621551513671875e+02
-2.569089965820312500e+02
-2.579609680175781250e+02
-2.544269866943359375e+02
-2.549655761718750000e+02
-2.580881958007812500e+02
-2.579560241699218750e+02
-2.580726318359375000e+02
-2.569178466796875000e+02
-2.568832397460937500e+02
-2.527651214599609375e+02
-2.500666198730468750e+02
-2.501005401611328125e+02
-2.576397399902343750e+02
-2.526687164306640625e+02
-2.558060607910156250e+02
-2.562303771972656250e+02
-2.567403259277343750e+02
-2.552729187011718750e+02
-2.548029632568359375e+02
-2.546945800781250000e+02
-2.547065887451171875e+02
-2.566460266113281250e+02
-2.576782531738281250e+02
-2.503919677734375000e+02
-2.563653259277343750e+02
-2.473088226318359375e+02
-2.573009948730468750e+02
-2.574917907714843750e+02
-2.481573486328125000e+02
-2.538457183837890625e+02
-2.515211029052734375e+02
-2.542118530273437500e+02
-2.501805877685546875e+02
-2.558176574707031250e+02
-2.568539428710937500e+02
-2.514435119628906250e+02
-2.537696685791015625e+02
-2.566773986816406250e+02
-2.578013916015625000e+02
-2.528940124511718750e+02
-2.566451110839843750e+02
-2.579474182128906250e+02
-2.576714477539062500e+02
-2.580429382324218750e+02
-2.577814941406250000e+02
-2.573187561035156250e+02
-2.570877075195312500e+02
-2.579235229492187500e+02
-2.570764160156250000e+02
-2.533250579833984375e+02
-2.567802429199218750e+02
-2.578691406250000000e+02
-2.521632690429687500e+02
-2.573718566894531250e+02
-2.511158905029296875e+02
-2.566730041503906250e+02
-2.580482788085937500e+02
-2.575207519531250000e+02
-2.569253845214843750e+02
-2.532658538818359375e+02
-2.580714721679687500e+02
-2.552815856933593750e+02
-2.566932067871093750e+02
-2.487278137207031250e+02
-2.560653076171875000e+02
-2.462696533203125000e+02
-2.569640197753906250e+02
-2.520419006347656250e+02
-2.533647460937500000e+02
-2.565604553222656250e+02
-2.558106689453125000e+02
-2.566895141601562500e+02
-2.568792724609375000e+02
-2.540962219238281250e+02
-2.565959167480468750e+02
-2.531732177734375000e+02
-2.558024597167968750e+02
-2.577847290039062500e+02
-2.547919311523437500e+02
-2.536085052490234375e+02
-2.580604858398437500e+02
-2.517389221191406250e+02
-2.575642089843750000e+02
-2.544856109619140625e+02
-2.580766601562500000e+02
-2.538659210205078125e+02
-2.548460693359375000e+02
-2.525049743652343750e+02
-2.579414978027343750e+02
-2.550403137207031250e+02
-2.578957824707031250e+02
-2.502233734130859375e+02
-2.569630432128906250e+02
-2.552268066406250000e+02
-2.523864440917968750e+02
-2.575327758789062500e+02
-2.579228515625000000e+02
-2.579364013671875000e+02
-2.570579528808593750e+02
-2.555958099365234375e+02
-2.569822692871093750e+02
-2.564625244140625000e+02
-2.567374877929687500e+02
-2.567501220703125000e+02
-2.557778320312500000e+02
-2.530258636474609375e+02
-2.559851379394531250e+02
-2.530080718994140625e+02
-2.506874237060546875e+02
-2.580097656250000000e+02
-2.570372009277343750e+02
-2.572037963867187500e+02
-2.550541687011718750e+02
-2.494465789794921875e+02
-2.531851196289062500e+02
-2.566092834472656250e+02
-2.571937866210937500e+02
-2.491432495117187500e+02
-2.521939086914062500e+02
-2.565155639648437500e+02
-2.532082214355468750e+02
-2.551247406005859375e+02
-2.494998779296875000e+02
-2.547383422851562500e+02
-2.477689361572265625e+02
-2.549832458496093750e+02
-2.523627166748046875e+02
-2.560064697265625000e+02
-2.561554260253906250e+02
-2.540089721679687500e+02
-2.547085571289062500e+02
-2.579138793945312500e+02
-2.561320190429687500e+02
-2.555526580810546875e+02
-2.493755798339843750e+02
-2.576478271484375000e+02
-2.548264007568359375e+02
-2.568643798828125000e+02
-2.571784973144531250e+02
-2.564489135742187500e+02
-2.580773010253906250e+02
-2.543542175292968750e+02
-2.563091430664062500e+02
-2.579120483398437500e+02
-2.562571105957031250e+02
-2.565473632812500000e+02
-2.573098754882812500e+02
-2.547682342529296875e+02
-2.535776519775390625e+02
-2.517398986816406250e+02
-2.497952728271484375e+02
-2.566499938964843750e+02
-2.556929779052734375e+02
-2.553848266601562500e+02
-2.532881011962890625e+02
-2.579855346679687500e+02
-2.570191040039062500e+02
-2.575938110351562500e+02
-2.542729034423828125e+02
-2.572701110839843750e+02
-2.567978820800781250e+02
-2.570775756835937500e+02
-2.580404357910156250e+02
-2.579416809082031250e+02
-2.559341278076171875e+02
-2.533324127197265625e+02
-2.565426025390625000e+02
-2.565798339843750000e+02
-2.563863220214843750e+02
-2.569988098144531250e+02
-2.568723144531250000e+02
-2.524772491455078125e+02
-2.549708251953125000e+02
-2.499789581298828125e+02
-2.545123443603515625e+02
-2.522528381347656250e+02
-2.563840942382812500e+02
-2.546984863281250000e+02
-2.579126892089843750e+02
-2.569230957031250000e+02
-2.541179351806640625e+02
-2.575622558593750000e+02
-2.574902954101562500e+02
-2.563627624511718750e+02
-2.579640502929687500e+02
-2.545082397460937500e+02
-2.569279479980468750e+02
-2.513339233398437500e+02
-2.566043395996093750e+02
-2.579810180664062500e+02
-2.547407684326171875e+02
-2.565747070312500000e+02
-2.575456848144531250e+02
-2.520832214355468750e+02
-2.521141052246093750e+02
-2.574520874023437500e+02
-2.517535552978515625e+02
-2.546947784423828125e+02
-2.577601013183593750e+02
-2.580121459960937500e+02
-2.521676483154296875e+02
-2.572252502441406250e+02
-2.509788513183593750e+02
-2.519512786865234375e+02
-2.538504333496093750e+02
-2.572537231445312500e+02
-2.493838348388671875e+02
-2.564516906738281250e+02
-2.537251129150390625e+02
-2.469749450683593750e+02
-2.569327697753906250e+02
-2.564113159179687500e+02
-2.575893554687500000e+02
-2.543547821044921875e+02
-2.579770507812500000e+02
-2.576644897460937500e+02
-2.578837280273437500e+02
-2.566833801269531250e+02
-2.550163879394531250e+02
-2.506952056884765625e+02
-2.540803527832031250e+02
-2.576472778320312500e+02
-2.577810974121093750e+02
-2.578862304687500000e+02
-2.484517364501953125e+02
-2.563414611816406250e+02
-2.579631347656250000e+02
-2.535950317382812500e+02
-2.576355590820312500e+02
-2.565437927246093750e+02
-2.580621948242187500e+02
-2.527727661132812500e+02
-2.478532104492187500e+02
-2.477093505859375000e+02
-2.544344787597656250e+02
-2.541490325927734375e+02
-2.519474945068359375e+02
-2.568348083496093750e+02
-2.568225097656250000e+02
-2.492160339355468750e+02
-2.555630950927734375e+02
-2.503075866699218750e+02
-2.523452758789062500e+02
-2.538050384521484375e+02
-2.573607177734375000e+02
-2.566239624023437500e+02
-2.579034423828125000e+02
-2.579895324707031250e+02
-2.555469512939453125e+02
-2.571419372558593750e+02
-2.558478393554687500e+02
-2.570499572753906250e+02
-2.572681579589843750e+02
-2.537080841064453125e+02
-2.572443237304687500e+02
-2.571736145019531250e+02
-2.579647216796875000e+02
-2.554390716552734375e+02
-2.542191009521484375e+02
-2.530301666259765625e+02
-2.562401428222656250e+02
-2.456664581298828125e+02
-2.561737365722656250e+02
-2.579758300781250000e+02
-2.570045166015625000e+02
-2.555717315673828125e+02
-2.568208618164062500e+02
-2.580746459960937500e+02
-2.545619812011718750e+02
-2.561420288085937500e+02
-2.526348876953125000e+02
-2.580832824707031250e+02
-2.563046875000000000e+02
-2.496008758544921875e+02
-2.557701416015625000e+02
-2.566554260253906250e+02
-2.551006164550781250e+02
-2.517071685791015625e+02
-2.556802825927734375e+02
-2.522023162841796875e+02
-2.532893218994140625e+02
-2.570798034667968750e+02
-2.574772033691406250e+02
-2.572157592773437500e+02
-2.556582031250000000e+02
-2.571614990234375000e+02
-2.570430603027343750e+02
-2.569577026367187500e+02
-2.555937194824218750e+02
-2.580538940429687500e+02
-2.549844055175781250e+02
-2.579874877929687500e+02