 -3.2190556e-07   7.8560930e-08
 -2.9444622e-05   6.0612642e-08
  1.8985108e-06   2.0170016e-07
 -1.4302482e-06   1.2336740e-07
  4.5503066e-06   4.5554003e-08
 -2.3026889e-06   1.1744974e-08
  2.9658497e-06   1.7488554e-09
 -2.4201706e-06   1.9272552e-08
 -4.8136862e-06   1.2127476e-08
  3.2443724e-05   9.0605731e-08
 -4.4170797e-06   1.6816539e-07
  1.9054212e-07   1.1725923e-07
 -3.5374687e-05   4.5089075e-07
 -7.8104140e-06   2.8488602e-08
  4.0567761e-06   3.8133786e-07
  5.1798074e-06   3.9433488e-07
  7.1814034e-06   4.5352127e-08
  9.7626971e-06   1.0944421e-07
 -7.6865254e-06   6.8146170e-07
 -3.2020553e-06   4.1024728e-07
 -3.1814761e-06   3.2373361e-08
 -9.6417722e-08   1.5446302e-08
 -4.4978810e-06   4.1316562e-07
  2.0543313e-05   3.1107867e-08
  9.6996055e-06   6.8955080e-07
  1.3863840e-06   8.2729228e-09
 -3.3137759e-08   2.3453591e-08
 -7.4267182e-06   3.8265205e-07
 -2.9689006e-06   6.5857586e-07
 -1.7646875e-05   3.1722436e-08
 -1.0981684e-05   2.2384214e-08
 -7.0100054e-06   3.4023017e-08
  3.2302428e-06   7.6415063e-08
 -1.8731098e-05   1.2220450e-08
  2.7868052e-06   3.8874685e-08
 -8.0427035e-06   2.5256227e-08
  3.2187631e-06   3.6438229e-07
 -4.0631885e-06   9.1595478e-09
  2.1613023e-05   8.5708564e-08
 -3.6796027e-05   4.3245471e-08
  2.6214402e-05   2.4399611e-08
 -1.6251772e-07   1.4107132e-08
 -1.0031968e-05   2.8692915e-07
 -3.8248372e-06   3.3252668e-08
  5.3185540e-06   5.0927946e-07
  5.6976106e-08   6.8825278e-07
  2.1098964e-05   5.0710446e-07
 -4.5046445e-06   1.4341981e-07
 -3.0576863e-05   4.6554547e-07
  8.8218701e-07   3.3554261e-07
 -1.4385530e-05   1.0145857e-07
  1.6776210e-06   5.5563159e-08
 -1.3540414e-05   8.5987644e-08
 -2.9732751e-06   5.4759499e-07
  6.0886723e-06   2.5837931e-08
  1.0886210e-05   9.7537975e-07
  1.7971370e-01   7.6672929e-10
  1.2326791e+00   3.5786769e-09
 -5.5560082e-01   2.2170445e-09
 -1.7283155e+00   5.5143126e-09
 -5.3085762e-01   2.8457579e-09
  3.0676427e-01   1.2792502e-09
 -2.0171852e+00   1.5894921e-11
  8.4802818e-01   3.2078867e-10
 -1.1112528e+00   7.1737638e-10
 -1.0707143e-01   1.2455012e-10
 -6.2571293e-01   1.4877981e-10
 -2.4918585e-01   2.6263562e-08
 -1.1768447e-02   1.1046054e-09
 -1.3742554e+00   6.9557364e-09
 -3.4584066e-06   1.1199696e-09
  5.8769560e-01   4.6798183e-09
 -3.5902873e-02   1.8150512e-09
 -6.5572280e-01   2.2715678e-08
  1.5924050e-02   3.3493852e-09
 -1.1373906e-05   1.0264728e-06
  1.9555759e+00   1.1040851e-10
 -5.6851584e-01   5.9073937e-09
  1.0531535e+00   1.9595980e-08
 -1.0853775e+00   3.6753989e-11
 -7.9547323e-04   1.0723106e-09
  3.6784461e-01   1.0443960e-09
 -1.0007545e+00   1.7238191e-09
  1.7080559e-01   6.8755601e-10
 -4.6747562e-05   6.4432670e-10
  2.1852777e+00   5.8610422e-10
 -9.2210251e-01   4.4523305e-09
  9.5727408e-01   7.6314732e-09
  1.6685741e-01   8.4968123e-11
  8.3029938e-01   4.6110754e-10
 -1.5458825e-02   7.3422657e-11
  2.7323657e-01   2.3009449e-10
  1.5555251e-01   4.3888007e-10
  1.6972153e-05   6.5380332e-09
  9.3940431e-01   8.9200931e-09
  1.8515993e-02   2.4776994e-10
  1.0815533e-01   1.0488306e-09
  2.8656182e-01   2.5550426e-09
 -5.2401138e-04   1.6729194e-10
  4.4117451e-02   1.2891731e-10
 -1.2175079e-01   3.8592537e-10
 -1.0994510e-01   2.6409741e-09
 -4.4091726e-06   9.3962532e-11
  2.7916300e-01   7.4001782e-09
  5.1543623e-01   4.3918704e-09
 -1.3621737e-02   1.1091109e-10
  1.9311944e-01   6.8967149e-10
  6.6957227e-04   2.4538435e-08
  8.8412575e-02   4.8435655e-10
  1.7186041e-01   2.4704347e-09
  3.4917396e-01   1.4542244e-10
  6.6513101e-05   1.6076315e-08
  2.1567705e-06   6.3080570e-08
  1.2483361e-05   7.2150897e-07
 -1.7211501e-06   5.2147719e-08
  2.8937638e-05   1.0504459e-06
  2.4520589e-06   2.0134662e-06
  9.8719493e-06   6.3332072e-07
  4.3466266e-06   2.6668616e-07
  3.0029745e-05   1.9018465e-06
  6.6472819e-07   9.9383975e-08
  2.3575597e-06   1.5191904e-06
  2.9405890e-06   1.4765019e-08
  3.0758652e-05   3.3786381e-07
  4.8214793e-06   4.1089939e-07
 -5.1221472e-05   2.9542828e-06
 -1.1424340e-06   9.2317663e-07
  3.7093159e-06   2.9561593e-07
 -2.1191956e-06   3.7981550e-07
 -1.3073033e-05   3.9912598e-09
  1.6582042e-06   1.3317894e-07
 -1.3385763e-06   1.4717116e-07
 -6.3699874e-05   3.2684675e-06
  3.4139077e-06   2.3724203e-06
  4.0147215e-06   1.5605044e-08
  1.1832584e-05   9.4232053e-09
 -4.0162736e-06   1.8560552e-06
 -5.8559617e-06   1.2898661e-07
  3.2496223e-06   9.9471993e-07
  1.7988821e-05   1.0998289e-08
 -6.4754789e-07   9.0971703e-08
  5.3428317e-07   2.2030731e-07
 -7.8703270e-06   9.9380820e-08
  2.9238172e-06   3.0242472e-07
 -5.1412371e-06   4.8194352e-07
 -3.1374439e-06   2.8411662e-07
 -1.9329213e-05   6.2940228e-07
  1.1003571e-05   1.9179464e-07
  6.6401149e-06   6.6377957e-08
 -3.3892545e-06   1.2683105e-07
 -8.2783635e-07   1.1578743e-07
  2.3608541e-06   1.2038939e-06
  1.4081095e-06   4.9606587e-07
  5.7696998e-06   4.7709534e-07
  7.0605952e-06   1.5012172e-06
  4.3909645e-06   1.0236449e-06
  1.0009579e-05   3.2278654e-06
 -1.7798133e-05   2.2613230e-08
  1.4525636e-05   2.1331634e-06
 -1.8084977e-07   1.3608950e-07
 -1.7539525e-05   2.6893903e-09
  5.4437369e-06   8.9683923e-08
  5.5636560e-06   2.6206512e-06
 -7.8932453e-06   7.8846756e-07
 -2.0380494e-06   1.1398219e-08
  1.1028721e-05   7.8113608e-08
 -1.3098144e-06   9.5166385e-08
  3.6683170e-06   9.7194075e-09
  9.5888322e-07   2.4635793e-07
 -2.4687055e-05   3.2944928e-07
 -7.1185891e-06   1.0853423e-06
  9.0483758e-07   3.6924837e-07
  6.9793464e-06   7.7982099e-07
  4.1254245e-07   1.1941150e-09
  6.7341102e-06   9.2709641e-08
  7.1250065e-07   3.7154230e-10
 -2.2806258e-05   1.7228140e-07
  2.5052793e-06   4.4392473e-07
 -7.1716222e-06   1.6614373e-09
 -8.5103750e-07   2.5653168e-07
  1.7117558e-05   1.3895739e-07
  1.6162605e-05   1.8070348e-06
 -2.8878471e-06   8.3000309e-08
  1.5360656e-05   5.7927860e-08
 -1.8855458e-06   2.0623500e-07
 -9.0899748e-06   1.2373710e-07
 -9.0519161e-06   8.8664746e-07
  9.1506481e-06   3.8021753e-08
  3.7137561e-06   7.2386889e-08
  1.0326158e-06   2.7088856e-08
 -9.6553094e-06   1.1468182e-07
 -8.3854320e-06   1.6731160e-07
  3.3506074e-06   3.1778507e-07
  1.3403037e-05   2.1943906e-06
 -4.8403058e-06   9.8691044e-07
 -7.4142717e-06   1.1771091e-07
 -4.8753614e-06   1.4253710e-06
 -1.1277955e-06   4.7646393e-09
 -3.5572182e-06   3.1402089e-07
 -1.6978165e-05   1.3024853e-06
  8.5546972e-06   2.0665414e-08
  7.8210160e-06   2.6557166e-06
 -5.6377198e-06   1.0224533e-07
 -2.9050911e-05   5.6777918e-07
  3.1949517e-06   9.9027186e-10
  9.5728501e-06   9.1223711e-07
 -2.0135749e-06   3.0020482e-07
  1.9140059e-06   1.3151947e-06
 -2.6197927e-07   3.5266831e-07
  2.4818040e-05   3.3787510e-06
 -1.5626012e-05   2.2384692e-07
  1.9515994e-07   1.6437955e-09
  3.2664284e-06   2.7662279e-07
 -3.3066415e-06   1.9900052e-07
 -1.2776951e-06   1.4543662e-08
  1.7336668e-05   3.2541570e-07
  9.5034638e-06   5.5963403e-07
 -1.0507658e-06   2.1331300e-06
  5.3531821e-06   2.8617848e-08
  3.8975136e-06   6.9854302e-08
  8.8217639e-06   1.8921689e-06
  5.7458251e-06   6.0425526e-07
  2.2624552e-06   1.1319397e-07
 -1.4610520e-05   4.1566048e-07
  2.1110152e-06   4.5029804e-08
  1.0733043e-05   4.3565689e-07
  5.1234160e-06   7.9097383e-08
  2.2911877e-06   1.4777729e-07
  5.7458928e-06   5.7784810e-08
  1.0933218e-05   1.1820678e-07
  7.8107887e-06   1.8799105e-07
 -3.3621861e-06   6.9819450e-08
  3.9107767e-06   8.3941262e-07
 -2.1319483e-06   3.0708816e-07
 -3.2748842e-06   1.1461686e-06
  2.0233241e-05   5.7474671e-07
 -7.7326777e-06   1.4110484e-09
 -8.1485632e-07   3.9097645e-09
  2.6776912e-05   1.1495548e-07
  4.9845720e-08   4.7836312e-07
  6.6002008e-06   1.9277692e-07
 -1.3412127e-06   3.2814236e-07
  1.3252439e-05   4.9409670e-07
 -2.2596225e-06   2.1998687e-06
  3.1468691e-05   2.8996976e-06
  5.8498899e-06   2.3316086e-07
 -5.9565477e-06   9.5634540e-08
  5.6209330e-05   6.3685394e-07
 -9.3797562e-06   1.6941004e-06
 -5.7586035e-06   9.7394593e-07
  7.1852196e-06   8.6335268e-07
  9.8558132e-07   1.2688918e-06
 -4.6714672e-06   9.5192451e-07
  8.8223924e-06   1.2260402e-06
 -1.9705292e-05   3.1637409e-08
 -1.0990484e-06   9.1335423e-08
 -1.1344109e-05   1.1877523e-06
 -6.4979949e-06   9.8172620e-08
  1.1290561e-05   1.0524493e-06
 -1.1114279e-06   2.5476749e-07
  7.5017279e-06   2.2831097e-07
  4.7726940e-06   2.7817457e-08
  5.0471340e-06   4.5323836e-07
  2.9786028e-05   9.5691189e-07
  1.1977351e-05   4.1226752e-08
 -1.6023600e-06   3.3819722e-07
 -4.0578643e-06   6.3754362e-07
  4.2095853e-06   5.0694251e-07
  7.0737449e-05   2.1449232e-06
 -4.4858584e-06   5.6453570e-07
  3.2618925e-06   1.9800308e-07
  1.0914572e-06   6.2728143e-09
 -3.1941603e-05   1.0435332e-06
  5.7516604e-07   1.3621270e-06
 -4.4381218e-06   2.6643228e-08
  1.6912318e-06   1.2638511e-09
  7.7268769e-06   9.9007721e-08
 -1.7501039e-05   7.6050704e-08
 -1.0911851e-05   8.8981346e-07
 -1.7351576e-05   4.4420080e-08
  4.2507219e-01   1.0440526e-09
  1.0201049e+00   7.3742540e-10
  2.2907324e-01   1.3107612e-10
  7.8474259e-04   4.3467760e-10
 -1.5421669e-01   2.7513944e-09
  2.4352499e-05   1.2091099e-10
 -1.6036613e+00   2.9204045e-10
  4.0122387e-01   4.6793347e-09
 -7.3597729e-02   1.4449087e-09
  2.8299020e-05   1.1485091e-09
 -1.4133333e-03   1.0141007e-10
 -6.6596118e-04   5.4580818e-10
  8.2387682e-03   8.7284899e-09
  3.5304317e-01   1.3992133e-08
  3.3022490e-01   2.1429375e-10
  9.5287378e-06   1.2892366e-08
  3.4751874e-04   1.6251446e-09
  3.2826250e-05   4.4700858e-08
  5.7110272e-02   8.6711957e-11
  3.7943312e-07   4.9260609e-09
 -4.9574315e-03   1.5123897e-09
 -5.7301870e-05   1.2990538e-10
 -2.5952214e-01   4.1181640e-09
 -4.1745463e-01   5.5291260e-09
 -1.4574081e-01   5.7427445e-09
 -3.7764150e-04   1.8786077e-09
  4.2530191e-06   4.0632537e-09
 -6.8696703e-05   2.8986997e-09
  8.2628510e-05   9.1832536e-10
  3.7793759e-02   7.0559714e-10
  1.6924930e-01   3.6235528e-09
  1.5513709e-06   4.5110490e-10
  4.4794238e-01   5.7372533e-09
 -1.8220950e-05   1.1293319e-09
 -5.2569114e-05   5.0146260e-09
  3.9269370e-01   1.8233759e-09
  2.6789237e-05   2.7125040e-09
  5.8649402e-06   2.4679347e-09
 -4.1578944e-05   4.8654375e-10
 -4.2647913e-01   1.8914619e-09
 -6.8211270e-06   8.4710156e-10
 -2.1431437e-01   3.1990326e-09
 -1.9033524e-01   2.0335841e-10
 -1.1919250e-06   1.5709074e-10
 -3.1589109e-01   3.2333056e-09
  5.3392868e-02   5.3519527e-09
  1.8880113e-05   1.6252713e-09
  1.1106259e-01   2.2814131e-10
  5.2373839e-06   1.4222683e-08
  7.5647181e-06   3.9186361e-09
 -7.3051035e-02   1.4233120e-10
  2.4601828e-05   1.3556745e-08
  1.8380358e-06   4.8775011e-09
 -3.1233471e-06   7.7600335e-09
 -1.5540941e-07   2.3106292e-08
 -6.6881485e-06   3.2264333e-07
 -1.6357599e-05   1.7282770e-10
 -1.7266048e-06   1.5499755e-06
 -1.3715942e-06   8.8695566e-07
  3.4959712e-06   1.4352512e-06
 -2.0622094e-06   1.2908033e-07
 -1.6345188e-05   2.3050414e-07
 -2.1173626e-06   1.8910214e-06
 -1.3482006e-06   3.7884806e-08
  3.0685324e-06   5.6853736e-08
  1.3646230e-05   3.0053872e-08
 -1.0702531e-05   2.3580315e-06
 -3.8746316e-06   2.6852874e-07
  1.6783408e-06   9.5034764e-08
 -1.3102001e-06   9.7718257e-08
  1.1977489e-05   4.3766253e-08
 -8.3915111e-06   9.7039008e-09
 -2.4259671e-07   4.4008829e-08
 -4.3851514e-06   1.0265494e-07
 -1.6249810e-06   5.6539972e-07
  1.5585896e-06   1.6032020e-08
 -4.2615106e-06   1.0147108e-08
 -9.8742303e-06   2.8302272e-06
 -2.0309046e-06   9.4240282e-10
  1.0402006e-05   1.6899388e-06
 -3.7364953e-05   1.0048042e-09
  3.3902836e-06   6.3136314e-09
 -1.5535593e-06   1.5824173e-07
 -8.6514556e-06   1.1347059e-09
  4.8626471e-06   8.7911076e-07
 -3.9451597e-06   1.2169209e-06
  3.9771712e-06   1.5207907e-07
 -9.5519199e-06   2.2847045e-08
  1.3750544e-06   2.8633067e-07
  4.6164964e-06   1.1334885e-08
  4.8606266e-06   8.9389056e-09
  2.6584266e-05   1.5485552e-08
 -3.0183193e-07   4.9915737e-08
 -1.4091862e-05   1.6068006e-07
  7.4213690e-06   2.3972967e-07
 -2.0804848e-05   3.4529361e-07
 -1.7636283e-06   4.0638122e-07
 -1.2426819e-05   3.7477417e-08
 -4.6128680e-06   8.0253392e-07
 -1.4263810e-05   1.3875604e-07
 -1.2531977e-05   1.3157600e-06
 -6.1222381e-06   3.2854069e-10
 -6.6705729e-06   4.4793808e-08
  1.8976428e-06   3.5227965e-06
  9.7155253e-06   2.0458067e-06
  2.3050059e-05   8.6314934e-08
 -6.6282865e-07   1.7697552e-07
 -9.5713576e-06   8.2922674e-07
 -5.4816151e-06   3.3179398e-07
  1.1918676e-06   2.8530434e-10
 -6.4859037e-06   1.1700373e-07
 -5.7072721e-06   2.4386379e-08
  1.0962699e-06   3.2076395e-07
  3.1450652e-06   1.0186316e-07
  1.0498242e-05   9.3298951e-07
 -7.8538034e-07   1.0253299e-08
  3.1333634e-06   1.1008339e-06
 -1.7159657e-05   2.0094137e-07
 -1.5007241e-05   5.3116572e-08
 -5.8249175e-06   1.4124645e-06
  5.1061329e-07   3.8571318e-07
 -6.0184611e-06   2.2632258e-07
  1.1285119e-05   8.4469484e-08
  4.9608775e-06   4.5615469e-08
 -1.9533236e-05   1.3432305e-07
  4.6020164e-06   6.1742355e-08
  3.5958196e-06   1.8815484e-07
  5.7008333e-06   7.7463467e-09
  8.9618388e-06   5.9644996e-08
  5.3879362e-06   3.9331189e-07
  9.8160240e-07   1.7235108e-06
 -4.0408672e-06   1.5111929e-07
 -6.6981675e-06   1.5940092e-08
  4.6839086e-06   4.8736445e-07
 -1.6778268e-06   6.8649435e-08
 -1.3319426e-06   6.6492998e-07
  5.8521294e-07   2.1042672e-06
  6.0047491e-06   1.1015441e-06
 -5.2681098e-06   9.1162275e-07
  1.7732293e-05   2.5232811e-07
  1.4367524e-06   3.1382985e-08
 -5.4816787e-06   1.4224186e-06
 -4.1915355e-06   3.2778701e-07
  1.7439028e-06   3.5948111e-07
  9.5690575e-07   2.8092716e-06
  2.3546761e-06   3.7988328e-09
  9.4879124e-06   9.8414688e-08
 -8.3220275e-06   5.7115841e-08
  1.1440224e-05   3.2814847e-07
  2.5571382e-05   1.0499891e-06
 -4.0092982e-07   2.0882725e-08
 -1.1075035e-05   8.5226515e-07
 -8.4717772e-07   6.8672858e-07
 -7.1764325e-06   3.0405104e-07
  1.2310384e-06   4.5866095e-08
  7.7965797e-06   8.9701462e-07
 -2.2630925e-06   9.0382892e-09
  1.3171925e-06   1.1447287e-06
 -1.6410469e-06   5.5794698e-07
 -1.3302728e-06   2.4970251e-07
  1.5460337e-05   7.6639338e-07
  3.5803976e-06   2.3966743e-07
  4.4924063e-06   6.1160193e-08
 -1.2501753e-06   4.6311925e-07
  1.3078134e-05   5.3037741e-08
  1.4742259e-06   1.4972409e-08
 -5.7228358e-06   4.1499732e-07
 -5.1123337e-05   1.8138445e-07
 -4.1463159e-06   1.0106534e-07
  1.9649644e-05   1.8557667e-07
  3.6934334e-06   2.2424830e-07
  4.3546444e-07   2.1105241e-06
 -1.0965699e-05   1.2753314e-07
 -2.4539557e-07   4.8321098e-09
  1.5571955e-05   1.1842977e-06
 -1.3618931e-05   5.1661726e-07
  1.7199867e-05   4.3999947e-08
 -1.6373233e-06   4.1847325e-06
  6.6772009e-06   5.5673868e-06
  1.8710805e-05   1.1750628e-09
 -5.2779524e-06   2.2041366e-08
 -1.1762016e-05   2.6794120e-07
  1.2528191e-05   5.6265279e-08
  1.8763038e-05   1.0241763e-06
  1.2648791e-05   5.2140661e-09
  1.6178652e-05   3.0088381e-07
 -1.7373728e-07   4.0121088e-07
 -1.9415127e-06   3.8040074e-08
 -5.3318827e-06   1.4788153e-06
 -5.0818799e-06   3.3915818e-08
 -2.3056196e-05   4.1787052e-06
  3.9213710e-06   2.7927995e-09
  1.9201121e-05   1.6096657e-06
 -1.2771014e-05   4.7449944e-08
 -1.5737314e-05   4.6828944e-07
 -1.8735078e-05   1.0569427e-08
  1.0094011e-06   1.8118186e-07
  1.2844866e-05   5.2808633e-07
 -1.3875548e-05   1.0201588e-07
 -2.2081335e-06   2.3651639e-08
 -6.2572985e-06   3.3693000e-09
  1.8015166e-06   6.1245748e-07
 -4.6900486e-06   5.3802950e-08
  7.2835142e-06   1.2923080e-07
  9.9551400e-08   2.7166974e-08
  3.7966540e-06   3.5882169e-07
 -7.0721994e-06   2.3420279e-08
  5.9042459e-06   1.7388433e-07
 -9.2757173e-06   2.5763612e-08
 -1.7707049e-06   1.3390066e-07
  1.8836408e-05   6.4376209e-08
 -5.0302178e-06   1.9772260e-07
  1.7856069e-06   8.7675204e-07
 -8.9185123e-06   2.9442722e-07
 -1.1410914e-05   4.9124424e-07
  1.8878535e-06   1.8904574e-08
  3.3434076e-06   2.3265945e-09
  1.0729921e-04   3.3441316e-09
 -1.9656461e-07   5.0213110e-08
 -2.0772350e-05   2.7258084e-08
  3.2750897e-06   1.2449002e-06
  7.2347243e-06   6.0536263e-07
 -9.7000702e-06   1.5848936e-07
 -6.0237426e-07   1.6636902e-06
  2.7671918e-05   6.7717065e-10
  1.3670824e-05   2.1514868e-06
  2.6763721e-06   1.2177949e-07
 -1.4584888e-06   1.5278049e-07
 -5.2783444e-06   2.6716077e-07
  7.6122806e-06   1.8550223e-07
  2.0697773e-06   1.0257974e-07
 -5.4567327e-06   3.6741741e-07
  1.1144719e-05   3.3313448e-08
 -8.7610770e-06   1.0840409e-08
  3.6867521e-06   1.2044160e-07
  2.9552464e-06   1.2695546e-06
 -1.0457570e-05   2.8302534e-06
 -1.2887731e-06   1.5210912e-07
  1.7252538e-05   3.5677995e-06
 -2.8136467e-06   1.9548197e-06
  7.0223077e-06   9.9267652e-08
 -2.2541679e-05   3.2177915e-08
 -1.4762936e-06   9.9960014e-09
  9.7839347e-06   1.5524021e-06
 -1.1016211e-05   4.9638379e-07
  2.9479923e-05   2.1061528e-07
 -1.8345549e-05   1.4137067e-08
 -7.1916343e-06   1.1452533e-07
  3.0978063e-06   3.2336538e-07
  7.9084157e-06   1.6694152e-07
  1.9765929e-07   5.1190091e-07
  3.8010310e-07   5.4995493e-09
 -2.7013450e-05   7.7728011e-09
 -7.6654842e-08   2.9889779e-07
  1.1193303e-05   8.1127645e-08
 -8.9819423e-06   1.1305882e-07
 -2.8855322e-05   2.0928067e-06
  2.2653021e-06   6.5342584e-07
  1.0425939e-05   1.7267753e-07
 -3.7214767e-07   9.5952146e-07
  8.6288210e-06   9.3917869e-09
  2.0141570e-05   1.6587625e-06
  4.9095543e-06   4.7084836e-07
 -1.5381585e-05   1.7100965e-07
  1.3425727e-05   4.0846970e-07
  4.8425632e-06   2.1460230e-07
 -5.3032531e-06   1.0198617e-07
 -1.2419541e-05   1.2165251e-06
 -7.4190602e-06   9.5182573e-09
  5.2487067e-06   5.7947278e-07
 -3.2443706e-06   1.1732586e-06
  3.9856509e-06   1.7933581e-07
  1.8345616e-05   4.0212061e-07
  7.7447630e-06   8.6376410e-08
 -2.4932076e-06   2.7347031e-07
 -1.8090657e-06   1.7237092e-07
 -5.0973777e-06   1.4920140e-07
  5.1410043e-06   2.8719489e-08
 -1.2224069e-05   2.2970083e-08
  7.6959520e-07   3.3707596e-07
  8.2778661e-06   7.7046973e-09
  1.1826874e-07   4.4361454e-07
  6.3327673e-07   6.7683771e-07
 -1.3116966e-06   3.5525154e-08
 -1.2266325e-05   4.2217883e-07
 -5.9234929e-07   6.9772663e-09
 -1.7605703e-07   8.2073861e-08
  9.2312266e-06   2.7159098e-08
 -4.5114789e-06   2.3771661e-06
 -7.5219077e-06   2.0060565e-07
 -9.6439071e-06   1.2168385e-07
  5.4355510e-06   4.6191499e-08
 -2.2796039e-05   2.0639183e-07
  5.5816173e-07   1.0202982e-07
 -1.4243226e-05   3.9200654e-07
 -8.2096713e-06   3.1433262e-07
  1.6564522e-05   8.6821368e-09
  3.5887090e-06   2.5040907e-07
 -1.6679134e-05   1.5791048e-07
  6.6116481e-06   2.1933987e-07
  3.4474147e-06   1.5507295e-08
  5.7631877e-07   1.0033409e-06
 -7.6865723e-07   1.3433678e-08
 -4.1639777e-07   1.2939080e-07
  2.2544675e-06   1.7585440e-06
  4.6206915e-06   1.2831184e-07
  2.0021220e-05   7.0081660e-07
  4.9288733e-06   5.1979868e-08
  2.0569034e-06   1.8868002e-08
 -5.5636574e-06   1.5399961e-07
  6.1074365e-06   1.0121462e-06
 -1.8805974e-06   4.8979348e-07
 -9.1022775e-06   1.8041897e-07
  6.1437390e-06   1.3429428e-08
  2.2033792e-05   2.2735646e-06
 -2.6432881e-06   2.0909051e-06
  9.7094232e-07   2.8629088e-09
  8.0006039e-06   1.2954014e-07
  5.9365539e-06   2.0248922e-06
 -5.0001036e-06   7.6732027e-07
  2.1301257e-06   6.7599636e-08
 -3.4825896e-06   6.8537592e-10
 -1.1958004e-05   3.7686993e-07
 -9.5483153e-07   6.2933263e-09
 -2.6561518e-06   6.0806747e-07
 -1.0940163e-05   1.0365885e-08
 -4.5325396e-06   6.0893552e-07
  6.0115536e-07   4.7239826e-07
  9.5505257e-09   2.9580207e-09
  7.9625333e-06   5.1020731e-07
 -9.6610120e-06   2.8380348e-06
 -1.8839357e-05   1.5212851e-06
 -1.8112150e-08   1.3663832e-07
  3.5659675e-06   8.4443371e-08
  1.5670911e-06   3.6385157e-07
  1.9137563e-06   5.0908244e-07
  4.4091871e-06   9.3392444e-08
  1.4348481e-06   1.1891699e-07
 -7.3353050e-07   6.9764063e-08
  6.2917584e-06   3.8989412e-09
  1.3677815e-05   2.6239488e-07
 -5.5748346e-06   8.9016476e-07
 -9.0897938e-06   1.0752666e-06
  9.3123253e-06   1.9427202e-07
  4.4007420e-06   1.8933086e-07
  2.2321819e-06   1.2675737e-07
  1.0301445e-05   1.8340977e-07
 -6.1569349e-06   3.0523381e-07
  6.2224512e-06   8.3682573e-07
  5.0564067e-06   1.1756659e-08
 -7.3781957e-06   3.7540130e-07
 -1.8962047e-06   2.6740554e-07
 -1.0756117e-05   1.1809108e-06
 -1.0438193e-05   3.5864977e-07
 -5.7327242e-07   3.1810904e-07
 -1.4923144e-06   1.6749060e-07
 -6.0618731e-06   1.0542280e-08
 -6.1335561e-07   1.6215058e-06
 -9.2032280e-08   2.5335135e-06
 -2.0784146e-06   8.4696791e-07
 -1.5372103e-05   1.7713865e-07
 -2.0280982e-05   4.5786587e-07
 -1.7846463e-06   6.7649574e-07
 -1.2127171e-05   4.4244103e-08
  1.8437302e-05   9.5578947e-08
  1.4485585e-06   8.5481219e-07
 -7.7536624e-06   3.8355593e-06
 -8.4841696e-07   4.4269404e-07
 -9.8207856e-06   4.8379474e-07
  8.2279339e-06   2.7142141e-07
  3.0676479e-06   2.6356290e-07
  5.1901952e-06   1.3831277e-06
 -1.1720917e-05   1.6417363e-07
  8.6010905e-06   3.4975750e-07
 -7.3275164e-06   4.1848207e-08
 -1.1309396e-05   3.7782200e-07
  1.5604551e-06   1.5865224e-07
  5.4667507e-06   2.4084941e-09
  7.9691454e-06   2.2012750e-06
 -3.1953161e-06   3.6576561e-10
 -3.3545371e-06   2.7342611e-07
  7.7336763e-06   1.7018913e-08
 -1.4852465e-06   5.2031538e-07
  7.1063614e-06   2.0820255e-10
  1.1284604e-05   4.5847584e-09
  5.9898589e-06   2.7598815e-06
 -4.7673238e-06   6.9921464e-07
 -1.4620637e-06   9.5029395e-07
  7.2450644e-06   1.7659903e-06
  4.0122941e-06   1.7987605e-07
 -1.0391095e-05   5.0945755e-07
  5.5791674e-07   8.3525009e-09
 -1.8057430e-05   1.1058785e-06
 -1.8855186e-06   1.4176415e-07
  5.0064104e-06   1.1951643e-08
  3.9240722e-06   3.9148173e-07
  5.2742389e-06   5.2839704e-07
  7.0244978e-06   7.2223099e-07
 -3.8731589e-05   7.6616189e-08
 -1.0662828e-06   4.8985049e-07
  7.2270740e-07   2.8682373e-07
  1.6029660e-05   6.6452532e-07
  6.0053940e-06   1.3741224e-07
 -1.6834476e-05   2.7693618e-08
 -9.0302876e-07   3.7267134e-07
  9.7814591e-06   4.2889351e-08
  2.2506476e-06   5.5553710e-07
  2.1581998e-05   1.0894371e-07
 -4.0672026e-06   7.3861895e-07
 -1.5264417e-05   2.6255636e-06
 -1.1764900e-05   9.8787467e-08
 -5.0610556e-06   2.5735401e-06
 -1.1820546e-06   4.3203354e-08
  8.5410884e-06   6.6116087e-08
 -6.4472840e-07   1.2610170e-07
  1.7920902e-05   1.9877541e-08
  4.8670186e-06   2.0604260e-07
  9.4511197e-06   1.3325345e-07
  1.7734494e-05   5.7025551e-07
 -1.0005876e-05   6.3513392e-07
 -1.0165618e-05   1.2825469e-06
 -1.0864089e-05   8.3210875e-07
 -1.1206141e-06   9.0128580e-08
  6.1363148e-06   2.4506519e-07
 -2.9714152e-05   3.6416928e-08
  9.0198155e-06   1.2187515e-08
 -1.1798240e-06   9.8554786e-08
  1.8272383e-06   1.9420103e-08
 -8.5492784e-06   2.7206845e-08
  1.5574101e-06   1.1500024e-09
  2.7440931e-06   8.0172259e-07
  2.4443279e-05   7.4076691e-09
  4.4036860e-06   3.1445157e-07
 -3.2658732e-05   5.9596391e-07
 -2.3377685e-05   7.3669270e-07
 -5.3611908e-05   1.4632242e-06
 -5.2644855e-06   1.3691179e-07
  1.1844634e-06   9.6178360e-07
  2.0399605e-06   2.5012673e-08
  9.8086666e-06   8.9689838e-09
  7.9421879e-06   1.4589767e-07
  2.4973235e-06   1.0516777e-08
 -1.8805036e-05   1.3747557e-06
  5.4213274e-06   3.2459027e-07
  4.0122368e-06   1.4350032e-06
 -6.3301371e-07   1.0534492e-07
 -9.7778366e-06   5.8833899e-07
 -5.9247545e-06   2.3729176e-07
 -4.3078488e-01   3.0430569e-09
 -1.0345659e+00   1.3721247e-08
  1.6357036e+00   2.2292493e-08
 -3.9089692e-01   2.2849932e-10
  2.0640857e+00   7.6800761e-09
  1.4573523e+00   3.1693212e-09
 -4.9175434e-03   7.5720284e-11
 -2.4447608e-01   7.2990020e-10
  1.3328215e+00   2.2269639e-09
 -7.6924962e-01   2.6203228e-09
  1.6964316e+00   8.1903784e-10
 -1.4111603e+00   1.7033216e-09
  3.8973829e-01   1.9148592e-10
  4.4085470e-01   2.0761164e-10
 -6.8156189e-01   8.0714981e-09
  3.6332826e-03   2.0754253e-08
 -5.8866912e-01   1.3455322e-08
 -6.7190148e-02   7.0145140e-10
  1.2616843e-01   2.1477657e-10
 -7.8897187e-07   2.6467534e-08
 -1.5153972e+00   1.9174710e-08
  8.5277790e-01   2.3288333e-09
  1.4559646e+00   7.9291196e-09
  6.7917751e-03   2.5197597e-11
  3.1563784e-06   8.8174437e-09
 -7.5490344e-01   1.0879790e-09
  8.1030682e-02   2.3989541e-09
  1.6719837e+00   1.0239601e-09
  5.1806906e-06   2.3367024e-09
  1.0729342e+00   7.6142674e-09
 -3.3433950e-03   1.3765533e-10
  1.2721472e+00   6.3652208e-09
  6.0589236e-01   1.4544322e-09
 -4.6877852e-01   5.0552829e-09
 -1.9158347e-01   2.8104305e-10
 -1.5500496e-01   2.9040563e-09
  3.3591685e-01   8.9490204e-10
 -5.8758624e-06   4.6511488e-08
  6.5580463e-01   6.6632078e-09
  7.6095349e-01   1.1526102e-09
 -9.7302817e-02   7.1705940e-12
 -3.4392565e-01   1.4119738e-09
  1.4701952e-01   1.8873343e-09
  4.8813820e-01   1.5904149e-09
  1.8190774e+00   3.6245169e-09
 -3.8801208e-02   3.7564627e-09
 -9.9255776e-06   3.2744722e-09
 -2.5111158e+00   1.4597423e-08
 -5.2770931e-01   7.9146439e-10
 -9.0589890e-07   8.7866169e-08
  6.3389212e-01   1.8450523e-09
  7.1568847e-06   3.3174437e-09
  1.0208511e-01   1.2061128e-09
 -1.8976794e-05   1.1680557e-08
  4.4384816e-01   2.3805640e-09
  4.2181468e-06   3.1764706e-08
 -4.6818525e-02   8.3009484e-09
 -9.9309429e-04   1.0902366e-10
 -7.2184885e-03   1.4946172e-10
 -7.5086894e-07   3.0856411e-09
 -4.8610545e-03   6.3272485e-09
  7.4102893e-02   1.4047649e-09
 -2.4091272e-05   6.6114514e-12
 -1.9680697e-02   4.8577803e-10
  3.4320274e-06   1.0762718e-09
  8.4970043e-06   8.0387902e-10
 -7.1932634e-05   6.5063999e-09
  5.6282524e-02   1.4312967e-08
 -1.6020016e-04   3.7657286e-09
  1.2858558e-05   4.1226484e-09
  1.0597429e-01   1.4981971e-09
  1.6096747e-04   2.7641804e-09
 -3.4289055e-06   9.6021679e-10
 -1.8663553e-05   2.9012837e-08
 -5.3728404e-03   1.1607314e-08
  2.3617617e-05   1.0316677e-06
 -6.7347951e-02   3.4409511e-10
 -1.4110813e-01   2.2671932e-10
  3.7919351e-06   4.1416312e-10
 -1.0012703e-03   1.7255518e-10
 -7.7379909e-06   1.4628742e-09
 -3.2186741e-04   8.3418833e-10
 -4.4133314e-03   7.7125784e-10
 -7.8460735e-06   2.9038467e-09
 -5.3521753e-06   3.8847421e-08
 -2.1712587e-03   1.2815444e-09
 -1.0403758e-05   3.9510186e-09
 -1.3361464e-01   2.0553191e-10
 -4.7185612e-03   5.6792454e-10
  9.5889380e-05   2.9718803e-09
 -4.9709637e-05   2.4278251e-09
  9.8304063e-06   8.3629520e-11
 -1.0139844e-01   5.2541343e-10
 -2.6838029e-06   3.1647676e-09
  9.7753928e-06   6.6022060e-10
 -3.1434145e-05   3.6495877e-09
 -1.4065376e-05   3.4307268e-09
  4.5430404e-03   2.8789102e-10
  6.2013714e-06   5.0242925e-09
 -1.0696299e-02   1.0307615e-09
  2.0671964e-03   5.4848048e-10
 -2.4117543e-03   3.5841727e-10
  8.7272238e-06   2.5089154e-08
  4.4215554e-05   1.3615992e-09
  1.4174937e-01   1.4088075e-09
 -2.9831978e-03   2.4621741e-08
 -2.1237744e-05   1.9501687e-09
  6.0268899e-06   3.3059728e-09
 -1.1657977e-04   3.1181711e-09
  5.4802014e-05   1.1788388e-08
 -5.1228612e-06   3.7835604e-10
  1.1502994e-05   6.2643727e-07
 -5.9261976e-07   1.4900020e-07
  1.0937792e-05   2.5424059e-08
  1.8725304e-05   1.2374208e-07
 -9.0059712e-06   1.4569549e-06
  1.7378051e-06   6.0615712e-08
 -1.0398375e-05   1.0860705e-07
  4.4779390e-06   1.6750088e-06
 -8.5047586e-06   2.0957643e-07
 -1.3954040e-06   9.6191101e-08
  6.0577941e-06   6.5499455e-09
 -1.0891436e-05   1.3657600e-08
 -1.1266884e-05   9.4643417e-07
 -2.5137340e-05   3.3621811e-07
 -9.1756665e-06   1.6589225e-07
 -7.8899257e-06   1.6123730e-08
  1.8563173e-06   4.5263482e-09
 -5.0361737e-06   2.8540580e-07
  3.0996937e-06   1.2175071e-06
  2.3131328e-05   1.3406677e-06
 -1.0230689e-05   1.0334016e-08
  1.2621743e-05   3.1806044e-07
  1.1779928e-05   1.2404123e-06
  2.6383918e-06   1.3833296e-07
  8.2096631e-06   2.0936721e-08
 -7.4147755e-07   5.6530087e-07
 -4.1308595e-06   7.7258363e-08
 -1.6025365e-06   2.1918905e-07
  9.5134119e-06   1.8486802e-06
  2.2259763e-05   2.9397683e-07
 -1.2472068e-05   7.5768673e-07
  1.0615233e-05   2.4167834e-06
 -2.2140093e-06   5.6233564e-09
 -1.6572135e-06   1.6011235e-08
 -3.4046323e-06   3.5942385e-08
 -1.0038351e-06   6.8624466e-08
  2.2549431e-05   8.5429406e-09
 -1.1900127e-05   3.1069966e-08
  1.2085028e-06   1.4563927e-08
  5.5238265e-06   1.3083301e-08
 -3.3734388e-05   2.4459140e-07
  1.1487775e-05   8.5338451e-07
  2.5890660e-05   1.1116418e-07
 -1.0216470e-05   6.0827876e-09
 -3.4356426e-06   5.8520698e-08
 -7.5508738e-06   1.2499867e-09
  1.3298253e-05   1.8796217e-07
  7.3994465e-07   4.4530486e-07
 -2.7937722e-05   5.8054229e-07
 -3.5210778e-06   4.6433396e-08
 -2.6032782e-07   1.7333491e-07
  1.3317897e-05   5.5657536e-09
 -1.4994248e-06   1.7028599e-07
  3.7929726e-06   9.4690895e-09
  6.3410503e-06   7.2702795e-07
  1.2686527e-07   2.1165121e-09
 -5.3325862e-06   1.8009214e-07
 -6.8674755e-01   2.9125211e-09
  5.2108582e-02   2.1261673e-10
 -1.2075974e-01   1.0542184e-09
  7.5577921e-01   7.3311428e-09
 -4.6258278e-02   8.3768534e-11
  7.6842892e-01   1.1227420e-10
 -6.8292499e-01   3.2039473e-09
 -5.4406881e-01   1.0789353e-09
  9.3316787e-01   7.2261808e-10
 -3.8002571e-01   9.3167729e-10
  4.1758016e-01   2.6186902e-09
  7.0807517e-01   1.8331608e-09
 -1.3147101e+00   3.5609231e-09
 -1.3151386e-01   4.0894602e-10
  7.0636712e-02   6.5120526e-10
 -8.3295578e-01   9.3073362e-09
 -5.8766775e-02   1.3137270e-09
  4.3944821e-01   4.3275179e-09
 -5.4418463e-01   2.5799292e-09
  3.3219762e-06   4.1139970e-07
  9.9448103e-01   6.1254792e-09
 -1.6641788e-01   1.0686089e-11
 -2.0991540e+00   1.6628698e-09
  1.4289602e+00   1.6490329e-09
 -1.5858923e+00   4.9654520e-11
 -1.6903216e-01   9.8643105e-10
  6.5688998e-01   1.4896303e-09
 -1.3757524e-01   1.1757550e-09
  7.8997755e-06   7.0227074e-11
  2.2841551e+00   6.2003642e-09
  4.7503731e-01   1.8145946e-10
 -6.5644139e-01   3.0279883e-09
  4.3886706e-01   1.5361494e-09
  8.0024685e-05   4.0238576e-11
 -1.2599488e-02   4.8769244e-12
 -2.6009698e+00   2.7599082e-08
 -3.9773706e-01   4.9664062e-10
  8.8083898e-06   1.7639992e-09
 -4.5836933e-02   2.6897293e-12
 -7.3106790e-01   6.4647430e-09
  4.7350511e-01   5.5068372e-09