31
Lattice="9.86 0.0 0.0 4.93 8.53901048131456 0.0 0.0 0.0 30.0" Properties=species:S:1:pos:R:3:force:R:3 PBC="1 1 1" Energy=-236.45387746 pbc="T T T"
C        6.29806583       7.92633067       4.23656310       3.01161862      -2.39512682      -0.00969009
C        2.59799138       0.03696760       4.44691560       1.36734125       2.78726629       0.70014382
C        8.80739176       7.91495568       4.66608840      -1.83838461       0.91830520      -0.97951129
C        5.09146416       0.13524127       4.67296410       0.18991653       1.28534157      -2.14314221
C       11.22965181       7.99410497       4.35631680       0.60039302      -0.30363391      -0.11220506
C        7.62718550       0.08964569       4.11258570      -0.10763343       1.13376787       0.29318346
C       13.80053638       7.90157745       4.10214210      -0.34824566       2.29942286       0.68565377
C        0.26457294       0.13370664       4.04964960      -4.02810696       1.40825165       2.28320549
C        2.59252229       1.51082582       4.39007100       2.61289335       0.04539304      -0.78531487
C        3.88157535       2.24068434       4.33903020      -2.75046094       2.71789416       0.51409510
C        5.06642902       1.57282160       4.37232210       4.39407048      -2.02186586       0.28332403
C        6.43275856       2.22715223       4.08227850      -3.32295033      -1.53412459      -0.69136366
C        7.71494226       1.59807538       3.96289860      -2.11729840      -1.49430686       0.50885323
C        8.95009642       2.27779881       3.82167420       0.19792703      -0.44700439       2.15575966
C       10.12540887       1.60630323       4.39607310      -3.72291782      -1.61256296      -4.85007936
C        1.42431023       2.27425683       4.15366890       2.46161453      -0.86322151       1.89359299
C        3.85992965       3.76780926       4.33037640      -0.57192169      -3.64038267      -1.55789043
C        5.12395473       4.41116700       4.22736690      -0.62818846      -4.80935861      -1.49602481
C        6.34815848       3.60606563       3.87832290       0.65389900       1.58603339       3.53419309
C        7.48615925       4.29420655       4.34828340       0.86989543       3.52866900      -1.16882358
C        9.99335640       4.37591395       4.04631660       0.66468378      -1.60483502      -0.36332106
C       11.23376777       3.66010270       4.04901450      -0.35704152       2.34571987       0.24716999
C        2.59504719       4.43063364       4.10572140       1.03565413       1.73176795       2.00089750
C        5.10863229       5.72866493       4.18484280       0.17103038       4.63140638       1.39837312
C        6.29513243       6.46185101       4.21343550       1.17657715       1.33211330      -0.36965923
C        7.54356121       5.79512584       4.25878380      -0.80968391      -2.07154036       0.66713111
C        8.72207382       6.53759152       4.43913390       1.45489336      -1.80453740      -0.29262994
C        9.91356233       5.75260575       4.23557910       0.38914819       1.43788647      -0.18104952
C       11.12372169       6.57224923       4.18942500       4.09401035      -1.19182688       1.50215870
C       12.48047164       5.91597410       4.29322980      -1.50576931      -2.41353188      -1.29548756
C        3.95138391       6.53186184       4.40430360      -3.23696355      -0.98137928      -2.37154237
31
Lattice="9.86 0.0 0.0 4.93 8.53901048131456 0.0 0.0 0.0 30.0" Properties=species:S:1:pos:R:3:force:R:3 PBC="1 1 1" Energy=-238.39293078 pbc="T T T"
C        9.78454379       0.13765466      -0.36608670      -1.48187931      -0.80317534       0.36593664
C        1.14062265       0.81151050      -0.28807740      -1.69798204       2.94572781      -0.55672431
C        2.33248387       0.10742366      -0.31944240       0.46399067       3.70269161       0.42827865
C        3.55183245       0.78929993      -0.35097390       0.84224771       2.56881435      -1.02778005
C        4.74391153       0.05279192      -0.58989300       2.73979961       0.94801937       0.84778863
C        6.06477764       0.80158851      -0.67461870      -3.17246321      -1.23642383       0.99927522
C        7.27420006       0.08067580      -0.61072620       0.59610992      -1.89766089       1.96722199
C        8.46752623       0.82337750      -0.46781550       2.19720037      -1.10900146      -0.50255812
C       10.97835946       2.29329899      -0.25364790      -2.89114181      -1.91262146       0.11680966
C        2.29459356       2.98808053      -0.15160050       1.42017317       1.78560830       0.58575408
C        3.50379291       2.28825090      -0.28616610       2.96496107      -2.07332267      -0.34966471
C        4.79474116       2.93614379      -0.37487490      -2.16315501       1.82984976       1.29891576
C        5.97539763       2.23917003      -0.47000610       2.84584207      -1.31716963      -1.56896348
C        7.25446685       2.79659518      -0.63252120      -3.10724032       1.83777948      -0.15552650
C        8.46347634       2.27116229      -0.51954900       2.61775945      -0.91973900       0.87029189
C        9.71352216       2.96173913      -0.27012450      -0.53938512       1.87253973       0.00175189
C       12.13896645       4.40993063       0.04571640       0.96030263       0.97938883      -0.60114484
C        3.60246030       5.18009977      -0.02154570       0.80608275      -5.84959072       0.34620314
C        4.93949597       4.39011466      -0.16368180      -3.52508391      -1.34852693      -0.59884406
C        6.06175254       5.11251777      -0.38424600       2.48376968       0.87173224       1.32975291
C        8.42826480       5.23212702      -0.07728060      -0.49096634      -3.10894600       0.40434527
C        9.59529671       4.46239645      -0.06904800       0.36056847      -3.08781087      -0.22577313
C       10.84906178       5.12041738       0.06950760       2.67624079      -0.53976237      -0.25292599
C       13.59356305       6.50999267      -0.05594640      -4.43662905       2.51819953      -0.95617729
C        4.91391592       7.22125100      -0.27909030      -0.89770361       1.44042031       0.58718071
C        6.12332622       6.51563627      -0.23534970       0.25899957       0.44857936      -1.29446117
C        7.29236549       7.34517450      -0.28014330      -0.56594525      -6.35537059       0.05609227
C        8.46153495       6.55090350      -0.26157780       1.09000898       1.35913838      -0.54556048
C        9.76191647       7.14276716      -0.41119710      -1.66161107       3.86281536       0.25673645
C       10.96434046       6.53113261      -0.08461920       1.08390731      -1.44733164      -0.53586352
C       12.25178418       7.12930763      -0.18380220       0.22322182       4.03514898      -1.29036751
31
Lattice="9.86 0.0 0.0 4.93 8.53901048131456 0.0 0.0 0.0 30.0" Properties=species:S:1:pos:R:3:force:R:3 PBC="1 1 1" Energy=-236.89021131 pbc="T T T"
C        8.45619985       0.54869444      -0.48021930      -2.28216369       1.18814502      -0.40390122
C        9.70787775       1.26054256      -0.37740300      -0.70139550       1.51748801       0.02423208
C        1.15836158       0.64005297      -0.40926150      -4.72950326       1.03448398      -0.48356942
C        2.28143037       1.39708612      -0.66939960       2.41439275      -3.34003103       0.12397658
C        3.48898299       0.60920306      -0.75078840       0.00890201      -0.65004400      -0.19503244
C        4.73226307       1.21765991      -1.06350690       0.74913042       2.02313196       2.55780008
C        5.94254978       0.54963450      -0.71905290       1.33370548      -0.74826251      -0.90772640
C        7.19783323       1.28860738      -0.62514300       0.65441492      -0.03649365       0.62002168
C        9.67575767       2.69527914      -0.35168010       0.18740727       2.88616626      -0.63880288
C       10.93466773       3.51266610      -0.56418240      -0.89226997      -4.43271895       0.03129851
C        2.34058253       2.74578483      -0.79946940      -4.01306126       2.02711559       0.30569042
C        3.48937586       3.42036580      -1.10360850       3.59907102      -1.72186491       1.07581180
C        4.84797343       2.73687761      -1.05073170      -4.08194997      -1.61204234      -1.59772823
C        6.03943872       3.34005103      -1.15388190       1.86535936       0.62802716       1.17833826
C        7.22713281       2.75139470      -0.61954140      -1.05795028      -0.80724447      -1.00690983
C        8.39829572       3.49330868      -0.36315000       0.90693615      -2.82811293      -0.60047175
C       10.84669350       4.90514653      -0.61627950      -0.61266109      -3.43433516       0.35786628
C       12.01793273       5.55349669      -0.55856580       5.20005514      -0.62241266      -0.58959371
C        3.46249272       4.71921069      -0.73685160       0.23905637       6.93501755       0.18174670
C        4.49986894       5.69978096      -0.66397140       1.52544578      -1.41288074       0.80198912
C        7.05739513       5.61932888      -0.53882670       0.59360273       0.41392095      -0.06270415
C        8.27017577       4.89878864      -0.43073970       1.83141833      -0.65050380      -0.56145804
C        9.63130686       5.49373856      -0.56403960      -5.13162937       4.84365366       1.23666988
C       12.13306366       6.92728404      -0.48904080      -5.66374382      -0.01975518      -0.63716062
C       13.22215667       7.65568895      -0.61079340       4.35296333       4.55525968       1.32738950
C        4.59885392       7.07647310      -0.50929080       4.11239356      -2.10055612      -1.09847755
C        5.92612302       7.83003190      -0.49607010       0.11615326      -3.43061458      -0.22141528
C        7.12732028       7.05455807      -0.61825080      -2.31041818      -2.43200065       0.91376420
C        8.36985184       7.68688529      -0.51050520       0.82794377       2.08636165      -1.25089928
C        9.56644305       6.95742999      -0.48736020       3.32287098      -0.63530726      -0.93728757
C       10.88940890       7.64723627      -0.56677080      -2.36447626       0.77640948       0.45654329
31
Lattice="9.86 0.0 0.0 4.93 8.53901048131456 0.0 0.0 0.0 30.0" Properties=species:S:1:pos:R:3:force:R:3 PBC="1 1 1" Energy=-235.69920914 pbc="T T T"
C        8.39633225       0.60358551      -0.41072550       0.05225174      -2.25303360       0.34133934
C        9.61558283       1.31816602      -0.30665040      -2.42228478       1.79690812      -1.66059407
C        0.88637629       0.59431624      -0.56701260       3.72114496      -0.79806879       0.84109864
C        2.14375282       1.30303302      -0.57905820      -1.18947640       1.32814739      -1.86723927
C        3.28878427       0.55950432      -0.55043070       4.86312144       0.55469955      -0.93684212
C        4.61332495       1.33115804      -0.72200100       1.91510377      -0.86970507      -0.81543576
C        5.91784047       0.61264446      -0.67170930      -1.20612516      -0.51414598       0.20551484
C        7.22840973       1.30779309      -0.67118010      -3.98010497      -1.12057962      -0.13905898
C        9.55091552       2.83181425      -0.38637870       1.27359643      -3.86397717       0.27912121
C       10.84818675       3.43178493      -0.55310010      -2.44641096       3.23302347      -0.67165103
C        2.19085404       2.76778892      -0.87348450       0.40510060      -0.79769657       2.59426327
C        3.42096516       3.52977025      -0.89491440       2.60591899      -1.44088240      -2.20518820
C        4.78750461       2.80650283      -1.16548530      -7.91810529      -3.11003847       2.98169410
C        5.94091657       3.36504616      -1.31486340       4.62259252       0.44287339       0.30329779
C        7.12519071       2.69164374      -0.84329280      -0.07417374       1.23317684      -0.11531521
C        8.24280914       3.44267388      -0.44327190       2.66265062      -2.82086493      -0.84694061
C       10.74389349       4.95023089      -0.58709550       4.21422616      -5.11554629      -0.31414491
C       12.01221950       5.63083237      -0.76619160       2.32349539      -1.97075039       0.47049570
C        3.60434883       4.93306252      -0.83973420      -1.14380865      -0.96574368       2.16729552
C        4.98137563       5.54308806      -0.43419780      -3.04438364       1.50498158      -1.65441218
C        6.86638405       5.43349695      -0.49246470      -0.27317736       3.52963776       0.49559184
C        8.18444899       4.77206477      -0.38864640      -0.74251608       3.72418857       0.83819246
C        9.54048986       5.48385654      -0.29286660      -3.82700157       3.92040456      -0.90321496
C       12.04835409       6.98112771      -0.63510660       0.78134824       1.43462825       1.16373387
C       13.29275156       7.62263060      -0.41758170       0.58479379       3.71724822      -1.51894834
C        4.69578112       7.04029033      -0.57698130       0.26680946      -5.28209981       0.94118458
C        5.91118832       7.64244358      -0.63906240      -3.24205423       7.28861397       0.85097707
C        7.02908327       6.97691516      -0.45453150       3.10694557      -4.78428369      -1.45829620
C        8.27600116       7.64723192      -0.49659450       1.42158057       0.42027193       1.37175621
C        9.54780119       6.94254214      -0.34251840       0.44469256       1.24720220      -1.18793336
C       10.86123824       7.70653244      -0.53233680      -3.75575000       0.33141065       0.44965877
31
Lattice="9.86 0.0 0.0 4.93 8.53901048131456 0.0 0.0 0.0 30.0" Properties=species:S:1:pos:R:3:force:R:3 PBC="1 1 1" Energy=-237.02591667 pbc="T T T"
C        8.33404086       0.56255992      -0.65988930      -0.07918644       1.00093288      -0.73497362
C        9.53559062       1.37577548      -0.76841850      -0.17088478      -4.42536966       0.39073784
C        0.90709333       0.60965042      -0.63734400      -0.93698186       1.71213085      -0.02768382
C        2.16368772       1.28986492      -0.55961760      -1.52152091       0.16952682       0.25695168
C        3.34641611       0.44223749      -0.53763840       0.79692522       6.53019818      -1.11575583
C        4.58277068       1.20317706      -0.67357470      -1.59383186       2.88840875       1.13667990
C        5.77858596       0.57512533      -0.55433610       4.41403939       0.79821626      -1.28647726
C        7.13056851       1.28929597      -0.70251690      -4.21427293       1.00010040       1.05987109
C        9.51077152       2.75109686      -0.76463910      -3.69792888      -1.73531191      -0.21383800
C       10.64872916       3.34837135      -0.54960270       4.65741794       7.50764888       1.44277044
C        2.03216567       2.82391541      -0.45934020       2.91349453      -6.63435160      -0.51935824
C        3.27328040       3.42370259      -0.41035500       2.36363720       0.07457265      -0.35534759
C        4.56911660       2.72614707      -0.62637720      -1.93011894      -0.76832940      -0.04073943
C        5.73470186       3.44520493      -0.86402430       0.95687518      -1.32963460       0.44626925
C        7.01263423       2.77990629      -0.73366110       1.28459079      -1.22958241      -0.75325598
C        8.30958481       3.44595184      -0.75099180      -4.38726281       1.19933569      -0.44702821
C       10.73604074       4.85873838      -0.37095090      -0.24050108      -2.97744663      -0.92260493
C       11.99595814       5.56008146      -0.26476440      -1.94643208      -1.40654569       0.10219047
C        3.38904153       4.82137175      -0.29493690      -2.73254612      -1.05755808       0.11498488
C        4.46758005       5.56303340      -0.38780640       4.53003693       1.88141905      -0.60915413
C        6.96434695       5.67377096      -0.46926780       2.30294632      -0.75956908       0.90509787
C        8.15543495       4.87165577      -0.71734110       0.87568041       0.44045950       1.80011364
C        9.51209261       5.51439246      -0.55018950      -1.51623260       0.24567676      -0.18474113
C       11.93919491       6.93913285      -0.27967680       2.29856948       3.59292367      -2.28843443
C       13.21637166       7.65333757      -0.59348250      -1.24017182       0.29296925       1.19910410
C        4.57751230       6.93853999      -0.61874220       0.18413321       0.56588056       0.88159117
C        5.75360910       7.76028782      -0.50701680       1.45242232      -0.88531013       0.63621690
C        7.00113303       7.09888228      -0.21587010      -1.00283560      -3.97012593      -3.81960571
C        8.29008843       7.64213276      -0.58990380      -0.40934112      -2.51684911       1.80530143
C        9.51975023       6.87600677      -0.58583280       0.41359612       4.94574665       0.56403485
C       10.76499507       7.74157757      -0.48540120      -1.82431519      -5.15016258       0.57708280
31
Lattice="9.86 0.0 0.0 4.93 8.53901048131456 0.0 0.0 0.0 30.0" Properties=species:S:1:pos:R:3:force:R:3 PBC="1 1 1" Energy=-237.04735753 pbc="T T T"
C        8.17019320       0.60333420      -0.65341950      -0.71382547      -0.63997752      -1.58693263
C        9.50748681       1.11133676      -0.72188130      -6.75212942       6.45267566      -0.43770403
C        0.77343753       0.48393049      -0.68717340       5.53125653      -2.27854399       0.45026601
C        1.97141116       1.32349505      -0.54191460       1.30176586      -3.17273168       1.53680324
C        3.18032994       0.53757861      -0.32517630       1.31340406       2.49160264      -2.59068603
C        4.45746729       1.38255682      -0.36422760       1.51354520      -0.62002721       0.08771838
C        5.72384068       0.62998932      -0.59997570      -1.18109631       2.71542654      -0.06400915
C        6.92648800       1.38437324      -0.80737080       1.08839160      -2.51137776       1.34917480
C        9.44973556       2.62067867      -0.76025580       4.57414050      -1.37572419       1.13729045
C       10.67360623       3.44000911      -0.47808090      -1.66470158       0.02413658      -0.86285325
C        1.97422451       2.72834193      -0.29440680       2.55074483      -1.07278263      -0.09990776
C        3.23327350       3.41995593      -0.03606600       0.83791463       1.40678741      -1.63979053
C        4.56716556       2.86367867      -0.19334550       0.03375076      -0.73339426      -0.24289094
C        6.09784458       3.69377160      -0.33832440      -3.43708660       0.32640514      -0.89766024
C        7.06416929       2.77817133      -0.77680140      -3.63554217      -0.80614587       0.94819897
C        8.30131700       3.26973262      -0.73348980       1.48237835       5.53877046       0.04646949
C       10.70217992       4.88887972      -0.45448500      -1.88495102      -3.42006555       0.43902250
C       11.86599388       5.57086384      -0.26802270      -1.24073329       2.56139832      -0.39501546
C        3.15912556       4.86182924      -0.16825260       4.22537741      -0.10571416       0.91362286
C        4.33370930       5.69253065      -0.25106880      -1.86471177      -2.66213772       0.17663515
C        6.97145463       5.30238617      -0.49293930       0.16640297      -0.24934693       0.46645621
C        8.27989482       4.76897954      -0.52353360      -0.40898819      -1.36444561      -0.90966423
C        9.47598357       5.52577385      -0.48662010      -1.86964379       2.19723360       0.43709727
C       11.80395993       7.01228374      -0.37128540       2.32234539       0.49839240      -1.39092009
C       13.02124403       7.73361639      -0.58437960      -0.38201873       0.04535912       1.49224526
C        4.37586272       7.01852550      -0.43745130       2.44462708      -0.34349419      -0.80249669
C        5.72055754       7.57944481      -0.61152390      -0.45041943       1.28944250       0.22833660
C        6.93214069       6.83622736      -0.58813170      -0.56347202      -1.80255634       0.24833528
C        8.21153564       7.61422736      -0.62405130      -3.62564181       1.22368616       2.41853830
C        9.38945516       6.98428261      -0.36821490       3.02955895      -0.61760782      -2.19594673
C       10.66223277       7.78794098      -0.53821980      -2.74064254      -2.99524311       1.74026698
31
Lattice="9.86 0.0 0.0 4.93 8.53901048131456 0.0 0.0 0.0 30.0" Properties=species:S:1:pos:R:3:force:R:3 PBC="1 1 1" Energy=-235.45795931 pbc="T T T"
C        6.61202642       8.05577908       4.09804260       1.37607449      -3.99035839      -0.82617237
C        2.92082489       0.07987057       4.13896530       1.63753010       4.40645098      -0.86120382
C        9.18726788       8.05073056       4.00029180      -8.89277460      -5.99923974      -1.21684883
C        5.36583892       0.06932942       4.19367090       7.47491763       6.25331593       1.71134905
C       11.55240102       7.92763723       4.22218500      -1.06448590       0.31009857       0.47212916
C        7.76048545       0.13989051       4.37344950       4.13922164      -1.13026023      -0.79032961
C       14.00073500       7.92740078       4.28052990      -1.37332866       1.77233465       1.44906219
C        0.44285879       0.10655823       4.14316920      -0.79075193      -0.76250146       0.93300527
C        2.84311034       1.52392825       4.07150550       5.54067959      -0.73471634       1.30232792
C        4.15764091       2.23622365       4.17243240      -0.43432815       0.27847403       0.47977308
C        5.39706820       1.54346918       4.35847020       1.05053101       1.19727179      -1.91173743
C        6.68040498       2.34457233       4.17730920      -3.37991386      -2.11149033       0.46191531
C        7.83615232       1.55553164       4.22673780       1.34311498       0.84979537      -1.04992114
C        9.10538107       1.96129560       3.77677470      -0.13214051       1.43034711       1.40059977
C       10.38654219       1.47689282       4.11300330      -3.60380004       2.59724378      -1.59112926
C        1.69782983       2.19834818       4.03420170      -1.37028213       3.98098067      -0.37655309
C        4.14865939       3.66705995       4.17900450       0.64093526       0.33703855      -2.00126459
C        5.37758494       4.48858090       3.94114110      -0.83126081      -0.72192481       1.79826402
C        6.66393134       3.74681917       3.85434840      -2.03313282      -1.30846497       0.99979193
C        7.75562496       4.43209825       3.55017510       3.07313474       5.31078832      -0.14176268
C       10.25724466       4.38119644       3.87077460      -0.03918173       2.15865639       1.06697330
C       11.50726544       3.75703311       3.93745680      -2.54694982      -5.09933448      -0.22137215
C        2.88277707       4.34136375       3.99693810       2.06184932       3.36824297       2.42215423
C        5.33824694       5.93184385       4.11140730       5.11326205      -3.05769510      -1.77061056
C        6.66822048       6.67444274       3.82330200      -4.14340114      -2.04727358       1.87494287
C        7.84714977       5.99405532       3.66438210       1.89933265      -4.22688019      -0.94994873
C        9.16724429       6.62974392       3.71819340      -3.36527207       0.49625408       1.26194475
C       10.21672854       5.81728602       4.01207940       4.38761944      -1.68522794      -1.49322585
C       11.65237082       6.53706697       4.15188960      -5.30992581      -1.50981005       0.32072945
C       12.75483945       5.77726556       4.32545490       3.09970952      -0.65781788      -0.92535427
C        4.19017492       6.53893121       4.48346520      -3.52698246       0.29570228      -1.82752789
31
Lattice="9.86 0.0 0.0 4.93 8.53901048131456 0.0 0.0 0.0 30.0" Properties=species:S:1:pos:R:3:force:R:3 PBC="1 1 1" Energy=-236.20572775 pbc="T T T"
C        8.15174479       0.64239753      -0.59149530       1.83307849      -2.61816644      -0.51937394
C        9.42996808       1.24616295      -0.61492350      -0.82326335       2.11493444       1.56186620
C        0.81892348       0.55189059      -0.36535380      -4.84114861      -1.05458765      -2.38886228
C        1.94980213       1.27396273      -0.40039050       2.77600269       1.98621286       1.72302385
C        3.13489358       0.57057233      -0.17615130       3.41808729      -1.01188462      -2.40884997
C        4.47171090       1.36274811      -0.28869030       1.48619393      -2.55283441       0.77998654
C        5.82815435       0.63467485      -0.25479510      -8.28323530      -4.19160772      -1.65626840
C        6.97654204       1.29217439      -0.31385820      -0.06047497       1.35827079      -0.80412212
C        9.36767521       2.70770485      -0.50305230       1.08346086      -0.40748274       0.81211142
C       10.59811235       3.47111758      -0.25467330       0.24236521      -3.14705272      -1.95640099
C        1.96426981       2.70529591      -0.32270820       1.49738520       1.67419207       0.78140467
C        3.28336171       3.43513624      -0.21987690      -4.72038964      -0.40365482      -1.57908574
C        4.49335956       2.79962935      -0.38047500       2.26335970       0.36448793       1.29844555
C        5.78866545       3.54837906      -0.36514290      -0.37585369      -2.15007089      -0.76625474
C        6.92180351       2.67870791      -0.34995120      -1.18860573       2.87473541       0.15813147
C        8.11978484       3.34992571      -0.44911620       0.90967435       1.63899211       0.38307617
C       10.53754158       4.84144688      -0.40326450       0.82921511       1.27170474      -0.23344891
C       11.80244263       5.62772648      -0.39056760       0.58314852      -3.84550070      -0.65223775
C        3.19969557       4.83062591      -0.33462810       0.56598230       2.48259237       1.56522068
C        4.35478387       5.68093843      -0.10582950      -2.20658315      -0.28881665      -0.36045935
C        6.68295201       5.38577456      -0.26444340      -0.26375988      -0.10857858      -1.15502613
C        7.92010998       4.78894162      -0.34624260       4.45330067      -1.12044344      -0.92063782
C        9.24986931       5.45195138      -0.58803180       0.18070676       2.80888626       3.30030599
C       11.84437514       7.00625169      -0.58063380      -2.15616532      -2.33007015      -0.14556250
C       12.96245753       7.74672804      -0.69185520       3.07136742       1.48948885       1.01386967
C        4.26152843       7.02546788      -0.42918960       5.46011944       0.00881877      -0.28523412
C        5.64480134       7.69722791      -0.43893300      -1.40929027      -1.04921148       0.55009286
C        6.80176112       6.87230536      -0.43188060      -0.85461753      -0.16403925       0.76610632
C        8.05127544       7.61094565      -0.36314670       2.55708118       0.80634038       1.51328725
C        9.42769905       6.90407227      -0.30114420      -5.48138282      -0.78601720      -3.01364182
C       10.60727777       7.56347259      -0.56590680      -0.54575887       6.35036246       2.63853791
31
Lattice="9.86 0.0 0.0 4.93 8.53901048131456 0.0 0.0 0.0 30.0" Properties=species:S:1:pos:R:3:force:R:3 PBC="1 1 1" Energy=-237.20816751 pbc="T T T"
C        6.67532190       8.00444682       3.95586810       1.09481737       0.53474941       1.22006831
C        2.96625893       0.22230340       4.04976690       1.35231458      -1.99852752       0.13395819
C        9.18836322       7.98327153       4.20969180      -5.31454576       0.05052470      -1.29008094
C        5.41305427       0.13895130       4.37830650       1.62219648       0.63238215      -0.67760170
C       11.51850204       7.89911710       4.40309850       2.02956242      -0.96458011      -0.91150767
C        7.82579918       0.07626754       4.27715220       1.84924337       1.32603400       0.03514230
C       14.02783142       7.98505678       4.25481240       0.98660010      -1.34930027      -0.59244059
C        0.54601865       0.14121329       4.29392880      -2.73459902       0.25544869      -2.24395412
C        2.91423777       1.62156338       4.01910780       4.63970723       0.41767420       0.67015725
C        4.26820774       2.36796956       4.04342940      -0.50057778      -2.13024541      -0.88060119
C        5.47070145       1.55533081       4.12495980       0.25466002       1.35551791       0.01282416
C        6.77725197       2.21420794       3.90874290      -7.12038137       3.16923792       1.54117931
C        7.89859679       1.56646380       4.05999660       3.69585368      -2.34996248       0.52978351
C        9.08468799       2.31157162       3.95767500       4.46391083      -2.25254404       1.19965276
C       10.39097283       1.56937927       4.08228180      -2.84842277       1.60442839      -0.08138747
C        1.72961857       2.28549971       3.96723180      -0.59331784       0.86479968      -0.35357026
C        4.36322763       3.77908553       3.81177780      -6.10603413      -4.51886027       0.95046814
C        5.54752179       4.41437220       3.78746400       1.16151411       1.49639101       1.41683033
C        6.81043126       3.67307312       3.95315340      -0.36224365       0.15323922      -3.32337749
C        7.88403879       4.44648930       3.43334040      -0.54140717       0.04563332       0.91502866
C       10.34065720       4.32878911       3.78808110      -0.66652279       1.16624184       0.54906581
C       11.59044992       3.71725994       3.79658250      -1.14745013      -2.67522988       0.33362015
C        2.96051243       4.36066515       3.84689130       3.61379470       2.95120474      -1.20722480
C        5.38503703       5.80424345       3.88951170       3.79889666       3.64644933      -1.34579116