5.512301996350288391e-02 8.557318150997161865e-02 -7.086870074272155762e-02 1.323668241500854492e+00 6.722379326820373535e-01 -3.629940003156661987e-02 2.542463302612304688e+00 5.050479900091886520e-03 -5.058659985661506653e-02 3.738251924514770508e+00 7.467530965805053711e-01 -6.529349833726882935e-02 9.803297996520996094e+00 8.479140281677246094e+00 -3.026789985597133636e-02 6.130133628845214844e+00 5.395554900169372559e-01 -5.775600206106901169e-03 1.236920452117919922e+01 8.475405693054199219e+00 -7.762619853019714355e-02 8.652888298034667969e+00 7.117623090744018555e-01 -1.939919963479042053e-02 1.231131911277770996e+00 2.080260753631591797e+00 -2.295287996530532837e-01 2.416207551956176758e+00 2.775481462478637695e+00 1.031105965375900269e-01 3.632803916931152344e+00 2.125513076782226562e+00 2.753759920597076416e-02 4.811915397644042969e+00 2.896216154098510742e+00 -4.517400171607732773e-03 6.065269947052001953e+00 2.250208854675292969e+00 -9.285269677639007568e-02 7.392437458038330078e+00 2.853463888168334961e+00 -1.732569038867950439e-01 8.611636161804199219e+00 2.190236806869506836e+00 4.208159819245338440e-02 9.860362052917480469e+00 2.836438417434692383e+00 3.610920161008834839e-02 1.232464694976806641e+01 4.330232143402099609e+00 3.818549960851669312e-02 3.710677385330200195e+00 5.035899639129638672e+00 -6.944850087165832520e-02 4.988535404205322266e+00 4.283031463623046875e+00 7.198499888181686401e-02 6.170371055603027344e+00 5.035429954528808594e+00 9.057179838418960571e-02 8.608851432800292969e+00 5.071201801300048828e+00 -9.061980247497558594e-02 9.696272850036621094e+00 4.245355606079101562e+00 1.517813950777053833e-01 1.107393169403076172e+01 4.980889797210693359e+00 -3.494970127940177917e-02 3.727683782577514648e+00 6.444243907928466797e+00 9.227219969034194946e-02 4.873229980468750000e+00 7.232913970947265625e+00 1.256970036774873734e-02 6.187729835510253906e+00 6.387501239776611328e+00 -4.661099985241889954e-02 7.393375396728515625e+00 7.172533988952636719e+00 -7.064429670572280884e-02 8.561857223510742188e+00 6.423182964324951172e+00 2.356139943003654480e-02 9.866396903991699219e+00 7.056996822357177734e+00 -3.849630057811737061e-02 1.111438274383544922e+01 6.388626098632812500e+00 -9.789329767227172852e-02 1.235439586639404297e+01 7.080147743225097656e+00 4.427729919552803040e-02
9.767091751098632812e+00 8.712343871593475342e-02 -1.317465007305145264e-01 1.135316491127014160e+00 8.237048983573913574e-01 -8.092530071735382080e-02 2.378304481506347656e+00 1.214251592755317688e-01 -8.454090356826782227e-02 3.630347490310668945e+00 8.001741170883178711e-01 -1.042134016752243042e-01 4.849456787109375000e+00 1.062814816832542419e-01 -3.860310092568397522e-02 6.084552764892578125e+00 7.755649089813232422e-01 -1.176642030477523804e-01 7.290785312652587891e+00 4.575885087251663208e-02 -1.520069986581802368e-01 8.524100303649902344e+00 7.625037431716918945e-01 -1.635908931493759155e-01 1.098740673065185547e+01 2.237200736999511719e+00 -5.398650094866752625e-02 2.380569458007812500e+00 2.959418773651123047e+00 -1.051371023058891296e-01 3.639264345169067383e+00 2.247772693634033203e+00 -1.349309980869293213e-01 4.888449192047119141e+00 2.907826185226440430e+00 -1.393523961305618286e-01 6.076513290405273438e+00 2.224083662033081055e+00 -2.413218021392822266e-01 7.305071830749511719e+00 2.790853738784790039e+00 -5.469309091567993164e-01 8.511801719665527344e+00 2.240313291549682617e+00 -1.742856055498123169e-01 9.713714599609375000e+00 2.937247514724731445e+00 -1.263870000839233398e-01 1.219820308685302734e+01 4.351560115814208984e+00 -2.342189997434616089e-01 3.611261844635009766e+00 5.027698040008544922e+00 -1.986512988805770874e-01 4.928745746612548828e+00 4.340880870819091797e+00 -8.262509852647781372e-02 6.136501789093017578e+00 5.117579460144042969e+00 7.481879740953445435e-02 8.389904975891113281e+00 5.060095310211181641e+00 4.081920161843299866e-02 9.603446960449218750e+00 4.355847358703613281e+00 -2.416170015931129456e-02 1.094309425354003906e+01 5.049587726593017578e+00 -1.596879065036773682e-01 1.344707870483398438e+01 6.490254402160644531e+00 -2.265170961618423462e-01 4.851027965545654297e+00 7.227655887603759766e+00 -1.441802978515625000e-01 6.117755889892578125e+00 6.504270076751708984e+00 -4.510410130023956299e-02 7.345361232757568359e+00 7.261898040771484375e+00 -4.405859857797622681e-02 8.506315231323242188e+00 6.465134143829345703e+00 -1.576350070536136627e-02 9.801268577575683594e+00 7.194379329681396484e+00 -2.786099910736083984e-03 1.101637268066406250e+01 6.455821514129638672e+00 -1.136996969580650330e-01 1.224394416809082031e+01 7.190800666809082031e+00 -1.380266994237899780e-01
8.332604408264160156e+00 5.715795755386352539e-01 -3.536331057548522949e-01 9.646485328674316406e+00 1.234600901603698730e+00 -3.616805970668792725e-01 1.076938629150390625e+00 6.518651843070983887e-01 -4.701575934886932373e-01 2.426062107086181641e+00 1.323331475257873535e+00 -7.612022757530212402e-01 3.577951669692993164e+00 6.148455739021301270e-01 -6.259353160858154297e-01 4.781056880950927734e+00 1.308850765228271484e+00 -9.466614127159118652e-01 5.974045276641845703e+00 5.527603030204772949e-01 -8.292843103408813477e-01 7.186831951141357422e+00 1.255156517028808594e+00 -6.411107778549194336e-01 9.675000190734863281e+00 2.740290403366088867e+00 -2.679435014724731445e-01 1.090182590484619141e+01 3.344986915588378906e+00 -6.155564785003662109e-01 2.264549016952514648e+00 2.748087644577026367e+00 -7.329540252685546875e-01 3.495187282562255859e+00 3.345403194427490234e+00 -1.160651683807373047e+00 4.754816532135009766e+00 2.663443326950073242e+00 -1.133810400962829590e+00 6.063297748565673828e+00 3.310792922973632812e+00 -1.163609385490417480e+00 7.230138301849365234e+00 2.661312818527221680e+00 -7.487249970436096191e-01 8.414871215820312500e+00 3.460801124572753906e+00 -3.778848052024841309e-01 1.079290008544921875e+01 4.870431900024414062e+00 -6.257663965225219727e-01 1.214223957061767578e+01 5.597632408142089844e+00 -6.442071199417114258e-01 3.449078083038330078e+00 4.829475402832031250e+00 -8.001956939697265625e-01 4.586530208587646484e+00 5.630129337310791016e+00 -5.191478729248046875e-01 6.919252872467041016e+00 5.547152996063232422e+00 -5.845074057579040527e-01 8.217130661010742188e+00 4.896702289581298828e+00 -3.035640120506286621e-01 9.431563377380371094e+00 5.610454559326171875e+00 -5.185890197753906250e-01 1.202698993682861328e+01 7.016410350799560547e+00 -4.477404057979583740e-01 1.329397583007812500e+01 7.797060966491699219e+00 -6.581544280052185059e-01 4.673890113830566406e+00 7.117250442504882812e+00 -6.094391942024230957e-01 5.863577365875244141e+00 7.731157302856445312e+00 -4.614807069301605225e-01 7.020728588104248047e+00 7.001275539398193359e+00 -6.168476939201354980e-01 8.376522064208984375e+00 7.783019065856933594e+00 -3.997521102428436279e-01 9.575569152832031250e+00 6.983308315277099609e+00 -4.823384881019592285e-01 1.081619453430175781e+01 7.692601203918457031e+00 -4.659090042114257812e-01
4.922586917877197266e+00 8.473443984985351562e+00 3.747462034225463867e+00 1.214150547981262207e+00 6.770744323730468750e-01 3.750432491302490234e+00 7.385574817657470703e+00 8.498906135559082031e+00 3.649161100387573242e+00 3.743877649307250977e+00 6.971616148948669434e-01 3.638093471527099609e+00 9.945554733276367188e+00 8.501334190368652344e+00 3.619324445724487305e+00 6.204360961914062500e+00 6.529015302658081055e-01 3.674368381500244141e+00 1.236983585357666016e+01 8.464165687561035156e+00 3.720808506011962891e+00 8.651313781738281250e+00 7.187770009040832520e-01 3.682286739349365234e+00 1.239918112754821777e+00 2.146575450897216797e+00 3.706018447875976562e+00 2.492574930191040039e+00 2.853862285614013672e+00 3.721953630447387695e+00 3.736476898193359375e+00 2.075358390808105469e+00 3.712167024612426758e+00 4.968408584594726562e+00 2.736458539962768555e+00 3.717268228530883789e+00 6.205596446990966797e+00 2.107976913452148438e+00 3.640284299850463867e+00 7.369873046875000000e+00 2.812578678131103516e+00 3.715401411056518555e+00 8.654655456542968750e+00 2.114071846008300781e+00 3.691516160964965820e+00 9.866136550903320312e+00 2.865882158279418945e+00 3.691294908523559570e+00 2.501272916793823242e+00 4.232891559600830078e+00 3.814119815826416016e+00 3.790421962738037109e+00 4.894406795501708984e+00 3.853926897048950195e+00 5.048350334167480469e+00 4.175545692443847656e+00 3.823204517364501953e+00 6.293841838836669922e+00 4.853477001190185547e+00 3.901870012283325195e+00 8.786529541015625000e+00 5.016699314117431641e+00 3.359288930892944336e+00 9.897704124450683594e+00 4.262905597686767578e+00 3.598244667053222656e+00 1.113533973693847656e+01 4.902205944061279297e+00 3.692835330963134766e+00 3.774998903274536133e+00 6.345925331115722656e+00 3.820525407791137695e+00 5.047229766845703125e+00 6.991027355194091797e+00 3.811622381210327148e+00 6.267992019653320312e+00 6.282917976379394531e+00 3.780198812484741211e+00 7.437930583953857422e+00 7.086053848266601562e+00 3.529926538467407227e+00 8.663275718688964844e+00 6.354226589202880859e+00 3.427072286605834961e+00 9.923409461975097656e+00 7.105013370513916016e+00 3.562587261199951172e+00 1.114599132537841797e+01 6.369059085845947266e+00 3.640552997589111328e+00 1.238030815124511719e+01 7.010721206665039062e+00 3.713061571121215820e+00
6.453610420227050781e+00 7.742429256439208984e+00 3.781250000000000000e+00 7.681560993194580078e+00 8.486384391784667969e+00 3.679465532302856445e+00 8.874117851257324219e+00 7.748821258544921875e+00 3.589656114578247070e+00 1.011594867706298828e+01 8.440031051635742188e+00 3.593779087066650391e+00 1.135796165466308594e+01 7.747657299041748047e+00 3.493865489959716797e+00 1.257623767852783203e+01 8.456831932067871094e+00 3.545953512191772461e+00 1.381901168823242188e+01 7.735516548156738281e+00 3.647326231002807617e+00 5.182952880859375000e+00 8.442157745361328125e+00 3.728662490844726562e+00 2.732945919036865234e+00 1.393773198127746582e+00 3.621651887893676758e+00 3.977422714233398438e+00 2.079257011413574219e+00 3.630868434906005859e+00 5.242237091064453125e+00 1.317947745323181152e+00 3.669589281082153320e+00 6.484766960144042969e+00 2.058409452438354492e+00 3.667136907577514648e+00 7.714602470397949219e+00 1.338908910751342773e+00 3.498978614807128906e+00 8.912923812866210938e+00 1.930947780609130859e+00 3.318009614944458008e+00 1.017880535125732422e+01 1.324556231498718262e+00 3.509263753890991211e+00 1.519444227218627930e+00 2.076490402221679688e+00 3.522561311721801758e+00 4.012084960937500000e+00 3.471850395202636719e+00 3.570621967315673828e+00 5.241285800933837891e+00 4.164567470550537109e+00 3.697520971298217773e+00 6.533863544464111328e+00 3.450397729873657227e+00 3.707391262054443359e+00 7.671227931976318359e+00 4.215855598449707031e+00 3.815788507461547852e+00 1.011327362060546875e+01 4.186946392059326172e+00 3.471530199050903320e+00 1.137142276763916016e+01 3.474570035934448242e+00 3.470223665237426758e+00 2.717258453369140625e+00 4.171413421630859375e+00 3.457857370376586914e+00 5.207897663116455078e+00 5.575979232788085938e+00 3.736890554428100586e+00 6.412026882171630859e+00 6.293015003204345703e+00 3.747203111648559570e+00 7.694236278533935547e+00 5.580157279968261719e+00 3.644166707992553711e+00 8.848385810852050781e+00 6.313141822814941406e+00 3.513733863830566406e+00 1.002559280395507812e+01 5.585125923156738281e+00 3.429298400878906250e+00 1.131402778625488281e+01 6.307315349578857422e+00 3.408292293548583984e+00 1.257643127441406250e+01 5.584217071533203125e+00 3.466365337371826172e+00 4.019261837005615234e+00 6.322670936584472656e+00 3.620385646820068359e+00
1.136240959167480469e+00 1.159059643745422363e+00 3.446321487426757812e+00 2.395287513732910156e+00 1.842998504638671875e+00 3.354485750198364258e+00 3.705631732940673828e+00 1.140541195869445801e+00 3.435234546661376953e+00 4.960211753845214844e+00 1.997715830802917480e+00 3.394545078277587891e+00 6.003521442413330078e+00 1.126408338546752930e+00 3.500129699707031250e+00 7.316265106201171875e+00 1.777672767639160156e+00 3.854775905609130859e+00 8.522551536560058594e+00 1.055303573608398438e+00 3.592547416687011719e+00 9.778002738952636719e+00 1.760733008384704590e+00 3.664291143417358398e+00 2.307057142257690430e+00 3.206970214843750000e+00 3.271317243576049805e+00 3.656276941299438477e+00 3.916745185852050781e+00 3.452252149581909180e+00 4.978065490722656250e+00 3.600313901901245117e+00 3.496073484420776367e+00 7.349939346313476562e+00 3.141399383544921875e+00 4.313139438629150391e+00 8.488211631774902344e+00 3.842037916183471680e+00 4.020318984985351562e+00 9.757242202758789062e+00 3.184061765670776367e+00 3.682652711868286133e+00 1.093408489227294922e+01 3.912950754165649414e+00 3.354725122451782227e+00 3.462145090103149414e+00 5.391867160797119141e+00 3.372986078262329102e+00 4.751684665679931641e+00 5.995639324188232422e+00 3.364181995391845703e+00 5.879227638244628906e+00 5.091208457946777344e+00 3.632747650146484375e+00 7.119961261749267578e+00 5.835984706878662109e+00 3.865557909011840820e+00 8.400974273681640625e+00 5.291054248809814453e+00 3.968222379684448242e+00 9.608063697814941406e+00 6.033860206604003906e+00 3.693584203720092773e+00 1.079732418060302734e+01 5.314879417419433594e+00 3.596781492233276367e+00 1.211998081207275391e+01 6.133335590362548828e+00 3.505583047866821289e+00 4.780810356140136719e+00 7.403474807739257812e+00 3.511088371276855469e+00 6.027111530303955078e+00 8.156580924987792969e+00 3.461089134216308594e+00 7.156949996948242188e+00 7.445294380187988281e+00 3.632155895233154297e+00 8.479960441589355469e+00 8.169845581054687500e+00 3.642597675323486328e+00 9.653170585632324219e+00 7.428383350372314453e+00 3.595466136932373047e+00 1.093802642822265625e+01 8.170733451843261719e+00 3.433606863021850586e+00 1.220682048797607422e+01 7.503685474395751953e+00 3.377364873886108398e+00 1.342663860321044922e+01 8.197664260864257812e+00 3.512052297592163086e+00
5.247261524200439453e+00 8.285595893859863281e+00 3.709430694580078125e+00 1.543840050697326660e+00 4.462704658508300781e-01 3.726567506790161133e+00 7.684161663055419922e+00 8.265993118286132812e+00 3.766993999481201172e+00 3.951919078826904297e+00 4.596801102161407471e-01 3.554373264312744141e+00 1.015855789184570312e+01 8.321351051330566406e+00 3.516780376434326172e+00 6.442965507507324219e+00 4.925409555435180664e-01 3.555267572402954102e+00 1.263668823242187500e+01 8.272043228149414062e+00 3.619020938873291016e+00 8.931351661682128906e+00 4.402519166469573975e-01 3.641804218292236328e+00 1.560823559761047363e+00 1.849560976028442383e+00 3.574330091476440430e+00 2.772317409515380859e+00 2.581857442855834961e+00 3.443716764450073242e+00 3.971468210220336914e+00 1.836957454681396484e+00 3.442070007324218750e+00 5.203521728515625000e+00 2.557703256607055664e+00 3.398200750350952148e+00 6.407782554626464844e+00 1.904384493827819824e+00 3.526973962783813477e+00 7.655076503753662109e+00 2.578440666198730469e+00 3.554509401321411133e+00 8.922601699829101562e+00 1.961289405822753906e+00 3.561245203018188477e+00 1.017342376708984375e+01 2.593611717224121094e+00 3.520427703857421875e+00 2.792489767074584961e+00 4.020554542541503906e+00 3.405726194381713867e+00 4.020624160766601562e+00 4.719598293304443359e+00 3.445665836334228516e+00 5.281444549560546875e+00 3.994557619094848633e+00 3.373964786529541016e+00 6.485502719879150391e+00 4.701472759246826172e+00 3.323901653289794922e+00 8.979731559753417969e+00 4.759762763977050781e+00 3.363750219345092773e+00 1.022264480590820312e+01 4.002311229705810547e+00 3.359525680541992188e+00 1.142634391784667969e+01 4.750980377197265625e+00 3.375668764114379883e+00 4.025160312652587891e+00 6.190544605255126953e+00 3.560025215148925781e+00 5.271327018737792969e+00 6.863798618316650391e+00 3.622044563293457031e+00 6.496755599975585938e+00 6.055818080902099609e+00 3.526925802230834961e+00 7.685101509094238281e+00 6.885239124298095703e+00 3.684293985366821289e+00 8.961761474609375000e+00 6.177842140197753906e+00 3.513876676559448242e+00 1.019947624206542969e+01 6.894258499145507812e+00 3.489702224731445312e+00 1.144439411163330078e+01 6.180608749389648438e+00 3.456418752670288086e+00 1.267494010925292969e+01 6.865745067596435547e+00 3.552977323532104492e+00
6.010678768157958984e+00 6.702919960021972656e+00 -2.555441856384277344e-01 7.210219860076904297e+00 7.366807460784912109e+00 -4.776560962200164795e-01 8.437958717346191406e+00 6.578344345092773438e+00 -7.718502283096313477e-01 9.629274368286132812e+00 7.355332851409912109e+00 -1.020449757575988770e+00 1.081651687622070312e+01 6.695595741271972656e+00 -8.637483119964599609e-01 1.226286888122558594e+01 7.316129207611083984e+00 -5.994557738304138184e-01 1.347879219055175781e+01 6.674243927001953125e+00 -3.453356921672821045e-01 4.729924201965332031e+00 7.374247550964355469e+00 -2.692349851131439209e-01 2.412287950515747070e+00 3.897231817245483398e-01 -5.954096913337707520e-01 3.596637248992919922e+00 9.721754193305969238e-01 -5.773565769195556641e-01 5.942937374114990234e+00 1.091683745384216309e+00 -5.505666136741638184e-01 7.187203884124755859e+00 2.745582163333892822e-01 -4.518947899341583252e-01 8.396648406982421875e+00 9.652040004730224609e-01 -5.546330809593200684e-01 9.733642578125000000e+00 2.347835153341293335e-01 -4.608455896377563477e-01 1.137741208076477051e+00 1.062202334403991699e+00 -4.239653944969177246e-01 3.650885820388793945e+00 2.453940629959106445e+00 -2.676365971565246582e-01 4.800339698791503906e+00 3.220137119293212891e+00 -2.584725022315979004e-01 5.974458694458007812e+00 2.468074321746826172e+00 -6.313652992248535156e-01 7.216017723083496094e+00 3.143952131271362305e+00 -3.361802995204925537e-01 8.461279869079589844e+00 2.361901283264160156e+00 -4.917551875114440918e-01 9.718924522399902344e+00 3.122105121612548828e+00 -5.129582881927490234e-01 1.093169116973876953e+01 2.471651792526245117e+00 -5.108010172843933105e-01 2.319976091384887695e+00 3.176162242889404297e+00 -4.829091131687164307e-01 4.868195056915283203e+00 4.541848659515380859e+00 3.565049916505813599e-02 6.077017784118652344e+00 5.226257324218750000e+00 -2.158257067203521729e-01 7.206507682800292969e+00 4.546264648437500000e+00 -4.028810858726501465e-01 8.421337127685546875e+00 5.294968605041503906e+00 -6.367632150650024414e-01 9.657845497131347656e+00 4.492128372192382812e+00 -7.707033157348632812e-01 1.083086013793945312e+01 5.237071990966796875e+00 -6.785405874252319336e-01 1.212000465393066406e+01 4.585782527923583984e+00 -3.844551146030426025e-01 3.579383611679077148e+00 5.279432773590087891e+00 -1.124904006719589233e-01
9.839994311332702637e-01 6.875249743461608887e-01 3.449287891387939453e+00 2.215668201446533203e+00 1.397807478904724121e+00 3.462542772293090820e+00 3.474849462509155273e+00 7.204344272613525391e-01 3.548757076263427734e+00 4.707993984222412109e+00 1.428928375244140625e+00 3.588804006576538086e+00 5.884564876556396484e+00 6.478125452995300293e-01 3.562934160232543945e+00 7.052808284759521484e+00 1.458338618278503418e+00 3.404768466949462891e+00 8.369264602661132812e+00 7.383602857589721680e-01 3.315240383148193359e+00 9.616392135620117188e+00 1.352495551109313965e+00 3.306785106658935547e+00 2.194149017333984375e+00 2.816157817840576172e+00 3.390942573547363281e+00 3.466645002365112305e+00 3.554433107376098633e+00 3.482586383819580078e+00 4.641858577728271484e+00 2.791223526000976562e+00 3.685843706130981445e+00 7.128545761108398438e+00 2.780556917190551758e+00 3.142076015472412109e+00 8.271205902099609375e+00 3.531235694885253906e+00 3.382846117019653320e+00 9.602874755859375000e+00 2.798478364944458008e+00 3.328527212142944336e+00 1.083724212646484375e+01 3.527947187423706055e+00 3.330711364746093750e+00 3.425036191940307617e+00 4.986242294311523438e+00 3.294204711914062500e+00 4.639707088470458984e+00 5.670932292938232422e+00 3.377505302429199219e+00 5.860161781311035156e+00 5.060762405395507812e+00 3.617754936218261719e+00 7.091784000396728516e+00 5.578545570373535156e+00 3.605573892593383789e+00 8.344841957092285156e+00 4.894006252288818359e+00 3.531261682510375977e+00 9.570623397827148438e+00 5.628742218017578125e+00 3.505225896835327148e+00 1.080033016204833984e+01 4.944223403930664062e+00 3.326962471008300781e+00 1.201941013336181641e+01 5.660085678100585938e+00 3.276394605636596680e+00 4.633782863616943359e+00 7.139625549316406250e+00 3.461525678634643555e+00 5.871944427490234375e+00 7.815327167510986328e+00 3.517957210540771484e+00 7.079773426055908203e+00 7.080543518066406250e+00 3.552968502044677734e+00 8.326085090637207031e+00 7.810551166534423828e+00 3.568244695663452148e+00 9.519187927246093750e+00 7.064902782440185547e+00 3.555561780929565430e+00 1.080614662170410156e+01 7.749413967132568359e+00 3.483814716339111328e+00 1.201176166534423828e+01 7.063673019409179688e+00 3.291659593582153320e+00 1.325782585144042969e+01 7.821792125701904297e+00 3.300773620605468750e+00
8.894238471984863281e+00 5.947903394699096680e-01 -2.157921046018600464e-01 1.005934429168701172e+01 1.456541895866394043e+00 -2.350554019212722778e-01 1.370684146881103516e+00 7.210639119148254395e-01 -2.884533107280731201e-01 2.659718990325927734e+00 1.341487050056457520e+00 -4.217546880245208740e-01 3.807010412216186523e+00 5.587267279624938965e-01 -5.726310014724731445e-01 5.027440547943115234e+00 1.354177594184875488e+00 -4.434491991996765137e-01 6.306255340576171875e+00 6.159061193466186523e-01 -2.449637949466705322e-01 7.580711841583251953e+00 1.243228554725646973e+00 -3.612929955124855042e-02 9.986955642700195312e+00 2.820339679718017578e+00 -4.258115887641906738e-01 1.134381389617919922e+01 3.434763669967651367e+00 -3.163830041885375977e-01 2.709373235702514648e+00 2.727683544158935547e+00 -3.913244903087615967e-01 3.920591354370117188e+00 3.595280647277832031e+00 -3.025689125061035156e-01 5.140108108520507812e+00 2.757365703582763672e+00 -6.871230155229568481e-02 6.314280033111572266e+00 3.233392477035522461e+00 4.566855132579803467e-01 7.497261047363281250e+00 2.704916238784790039e+00 1.914263963699340820e-01 8.827558517456054688e+00 3.608567476272583008e+00 -9.469050168991088867e-02 1.147926807403564453e+01 4.929592609405517578e+00 -4.906176030635833740e-01 1.265733623504638672e+01 5.607348918914794922e+00 -3.966780006885528564e-01 4.205738067626953125e+00 5.027135848999023438e+00 -2.782950103282928467e-01 5.565948486328125000e+00 5.656200885772705078e+00 -2.549940049648284912e-01 7.300064563751220703e+00 5.508657455444335938e+00 -7.002224922180175781e-01 8.572078704833984375e+00 4.912718772888183594e+00 -5.510489940643310547e-01 1.020239543914794922e+01 5.634004116058349609e+00 -6.095259189605712891e-01 1.259499359130859375e+01 7.035640716552734375e+00 -5.390912890434265137e-01 1.383123016357421875e+01 7.664999485015869141e+00 -3.979310989379882812e-01 5.331127643585205078e+00 7.060057163238525391e+00 -3.077555894851684570e-01 6.443284034729003906e+00 7.809861183166503906e+00 -3.371771872043609619e-01 7.523153305053710938e+00 7.029279232025146484e+00 -6.752991080284118652e-01 8.783427238464355469e+00 7.618113040924072266e+00 -6.457749009132385254e-01 1.006715965270996094e+01 6.961332321166992188e+00 -7.137302756309509277e-01 1.137761974334716797e+01 7.709721565246582031e+00 -5.491703748703002930e-01
9.522030830383300781e+00 2.495041638612747192e-01 -1.584839969873428345e-01 8.771654963493347168e-01 9.107640981674194336e-01 -1.774428039789199829e-01 2.089810132980346680e+00 2.163202017545700073e-01 -2.947199940681457520e-01 3.322738170623779297e+00 9.157888889312744141e-01 -2.750796079635620117e-01 4.628781795501708984e+00 1.885896027088165283e-01 -1.843547970056533813e-01 5.833380699157714844e+00 9.648544192314147949e-01 -5.017469823360443115e-02 7.124913215637207031e+00 2.367462068796157837e-01 -3.983969986438751221e-02 8.349476814270019531e+00 1.015753388404846191e+00 -7.771140336990356445e-02 1.084744644165039062e+01 2.337997913360595703e+00 -2.110185027122497559e-01 2.208971977233886719e+00 3.015406131744384766e+00 -1.917966008186340332e-01 3.428532361984252930e+00 2.335802078247070312e+00 -3.337199985980987549e-02 4.663537979125976562e+00 3.224307298660278320e+00 -3.635640069842338562e-02 5.867158889770507812e+00 2.427862405776977539e+00 -1.916438937187194824e-01 7.224830150604248047e+00 3.117005348205566406e+00 -4.269815981388092041e-01 8.416905403137207031e+00 2.369665622711181641e+00 -2.399426996707916260e-01 9.685015678405761719e+00 3.059488534927368164e+00 -2.365317046642303467e-01 1.205679512023925781e+01 4.481040477752685547e+00 -1.937651932239532471e-01 3.508996486663818359e+00 5.277071952819824219e+00 -3.451463878154754639e-01 4.681719303131103516e+00 4.581624031066894531e+00 -2.663766145706176758e-01 5.881446838378906250e+00 5.267656326293945312e+00 -2.573306858539581299e-01 8.446373939514160156e+00 5.133882999420166016e+00 -3.017039895057678223e-01 9.600653648376464844e+00 4.448121070861816406e+00 -1.151439025998115540e-01 1.076295471191406250e+01 5.225301742553710938e+00 -1.406130045652389526e-01 1.329436302185058594e+01 6.618500709533691406e+00 -1.029881983995437622e-01 4.669757366180419922e+00 7.347756385803222656e+00 -3.187919855117797852e-01 5.915565967559814453e+00 6.647716999053955078e+00 -5.452787876129150391e-01 7.125179290771484375e+00 7.347960472106933594e+00 -5.903162956237792969e-01 8.346478462219238281e+00 6.644069194793701172e+00 -5.511317849159240723e-01 9.560769081115722656e+00 7.383767604827880859e+00 -2.838729023933410645e-01 1.080016803741455078e+01 6.668938159942626953e+00 -1.388567984104156494e-01 1.207587337493896484e+01 7.413431167602539062e+00 -1.074009016156196594e-01
1.144333481788635254e+00 8.738892674446105957e-01 3.516993522644042969e+00 2.355092287063598633e+00 1.662138223648071289e+00 3.478956222534179688e+00 3.634837865829467773e+00 9.393050074577331543e-01 3.405390024185180664e+00 4.908024787902832031e+00 1.711918473243713379e+00 3.474087715148925781e+00 6.112390041351318359e+00 9.911162257194519043e-01 3.623324394226074219e+00 7.323854446411132812e+00 1.717183947563171387e+00 3.867031812667846680e+00 8.586583137512207031e+00 9.352339506149291992e-01 3.676781892776489258e+00 9.837032318115234375e+00 1.607438087463378906e+00 3.709707021713256836e+00 2.419276952743530273e+00 3.071290016174316406e+00 3.499049186706542969e+00 3.578903675079345703e+00 3.762759208679199219e+00 3.374529361724853516e+00 4.848104953765869141e+00 3.165717840194702148e+00 3.298804998397827148e+00 7.398543834686279297e+00 3.041448831558227539e+00 4.191703796386718750e+00 8.555241584777832031e+00 3.758744001388549805e+00 3.880791187286376953e+00 9.851333618164062500e+00 3.075440406799316406e+00 3.808937788009643555e+00 1.105222892761230469e+01 3.778356790542602539e+00 3.651286840438842773e+00 3.587345123291015625e+00 5.210765838623046875e+00 3.306340456008911133e+00 4.827734947204589844e+00 5.898987293243408203e+00 3.165193080902099609e+00 5.992111682891845703e+00 5.113868713378906250e+00 3.181040048599243164e+00 7.293482780456542969e+00 5.856337070465087891e+00 3.386631011962890625e+00 8.561362266540527344e+00 5.174378871917724609e+00 3.614741325378417969e+00 9.759117126464843750e+00 5.916032314300537109e+00 3.487743854522705078e+00 1.099300861358642578e+01 5.209888935089111328e+00 3.495224952697753906e+00 1.220549488067626953e+01 5.928387165069580078e+00 3.442187309265136719e+00 4.826601982116699219e+00 7.262998580932617188e+00 3.231777906417846680e+00 6.091588497161865234e+00 8.016729354858398438e+00 3.334724903106689453e+00 7.300592422485351562e+00 7.321870803833007812e+00 3.407751083374023438e+00 8.561993598937988281e+00 8.019196510314941406e+00 3.456816196441650391e+00 9.787694931030273438e+00 7.343601226806640625e+00 3.444326162338256836e+00 1.099249935150146484e+01 8.040264129638671875e+00 3.476160526275634766e+00 1.225523376464843750e+01 7.375155448913574219e+00 3.440607547760009766e+00 1.348337650299072266e+01 8.051810264587402344e+00 3.390237331390380859e+00