-1.005167007446289062e+00 -2.091379165649414062e+00 8.855178356170654297e-01 -2.000390529632568359e+00 2.358391523361206055e+00 -1.684084773063659668e+00 -1.288524746894836426e+00 6.581435203552246094e-01 -1.842754930257797241e-01 -1.482970476150512695e+00 -1.864868283271789551e+00 4.511266052722930908e-01 2.707217931747436523e+00 1.881917268037796021e-01 -7.188653200864791870e-02 1.698572278022766113e+00 5.299263477325439453e+00 -9.722554683685302734e-01 -1.503885626792907715e+00 1.723752737045288086e+00 1.198001384735107422e+00 -1.199908971786499023e+00 1.784738421440124512e+00 -2.792547047138214111e-01 -1.741336286067962646e-01 2.011792659759521484e+00 3.918812513351440430e+00 -2.828858047723770142e-02 3.787476539611816406e+00 -2.106029272079467773e+00 1.417523622512817383e+00 9.638093709945678711e-01 4.997231066226959229e-02 2.849901199340820312e+00 -9.809353351593017578e-01 2.661116719245910645e-01 3.027248382568359375e+00 -2.872732162475585938e+00 2.984416484832763672e-01 -2.542163848876953125e+00 -1.398485064506530762e+00 3.639375567436218262e-01 -8.714838027954101562e-01 -1.234613060951232910e+00 -9.295235872268676758e-01 -3.901448249816894531e-01 -3.084781765937805176e-01 -6.213529109954833984e-01 -4.735599756240844727e-01 -3.420680046081542969e+00 -3.439668416976928711e-01 1.042445898056030273e+00 -8.768841624259948730e-01 2.031306743621826172e+00 -2.031940221786499023e+00 1.443037748336791992e+00 -9.618667960166931152e-01 -1.868582367897033691e-01 -1.150808453559875488e+00 3.164224028587341309e-01 -4.860102832317352295e-01 -2.834927558898925781e+00 1.183738112449645996e+00 4.037593364715576172e+00 9.165816903114318848e-01 -1.999284982681274414e+00 -1.166516900062561035e+00 -3.961096704006195068e-01 1.013290286064147949e+00 -5.016068220138549805e-01 -6.137134432792663574e-01 -1.120922446250915527e+00 3.624143600463867188e+00 -3.539687871932983398e+00 -2.827275991439819336e-01 -1.061999678611755371e+00 3.305026531219482422e+00 2.965610921382904053e-01 -3.155819773674011230e-01 -1.669185519218444824e+00 5.791265368461608887e-01 1.533568263053894043e+00 -2.428091466426849365e-01 -1.234858870506286621e+00 -1.284158825874328613e+00 8.577112555503845215e-01 -4.387496039271354675e-02 -1.001277089118957520e+00 -2.616668641567230225e-01 1.033256053924560547e+00 -9.416421651840209961e-01 4.600462913513183594e-01 -1.049457430839538574e+00
2.973586320877075195e-01 7.128052711486816406e-01 1.224577128887176514e-01 1.972050033509731293e-02 -1.695237010717391968e-01 -6.214914098381996155e-02 4.871754646301269531e-01 1.865365915000438690e-02 7.628180831670761108e-02 -7.067267894744873047e-01 1.540433168411254883e+00 2.269345968961715698e-01 4.052089154720306396e-02 -1.720706343650817871e+00 -1.645526140928268433e-01 -2.738997638225555420e-01 7.085203528404235840e-01 -1.073249578475952148e-01 8.138365745544433594e-01 1.248549103736877441e+00 5.575561150908470154e-02 -1.999417841434478760e-01 9.947677850723266602e-01 2.756926119327545166e-01 -3.480845987796783447e-01 6.875556707382202148e-01 -5.119417905807495117e-01 -3.295832872390747070e-01 -1.398039937019348145e+00 -2.789292037487030029e-01 -6.880319714546203613e-01 -8.384067416191101074e-01 3.553208708763122559e-01 -1.567889213562011719e+00 1.674869060516357422e+00 -1.354154795408248901e-01 1.405603289604187012e+00 -1.597614884376525879e+00 -1.511514633893966675e-01 -7.914683967828750610e-02 8.793769478797912598e-01 5.337665677070617676e-01 -3.510424792766571045e-01 -2.153791904449462891e+00 -1.030687332153320312e+00 1.594678521156311035e+00 1.277809739112854004e-01 8.100336194038391113e-01 5.644437670707702637e-01 -1.196293309330940247e-01 7.779945135116577148e-01 8.653767704963684082e-01 1.836973309516906738e+00 -6.747013330459594727e-02 -3.467480540275573730e-01 3.523170948028564453e-01 3.115067072212696075e-02 4.425211995840072632e-02 -9.547542780637741089e-02 -3.691498637199401855e-01 -3.080912232398986816e-01 1.012707233428955078e+00 -8.953273296356201172e-02 1.942482948303222656e+00 -5.422660112380981445e-01 -5.615954995155334473e-01 -7.800150513648986816e-01 1.073435768485069275e-01 3.577072322368621826e-01 2.414157390594482422e+00 -1.043110489845275879e+00 8.088421821594238281e-01 -3.873256742954254150e-01 -2.142192602157592773e+00 -1.056314036250114441e-01 -3.948291838169097900e-01 6.104955077171325684e-01 -2.119832783937454224e-01 -1.474396705627441406e+00 -7.733592391014099121e-01 6.748811900615692139e-02 9.413766264915466309e-01 9.703240990638732910e-01 1.654939958825707436e-03 -1.308599710464477539e+00 -6.170501112937927246e-01 -4.743765592575073242e-01 -1.095286965370178223e+00 7.846599221229553223e-01 3.602566719055175781e-01 -7.913442850112915039e-01 -1.056966185569763184e+00 -5.394463539123535156e-01
4.155667304992675781e+00 1.627585649490356445e+00 -1.334189534187316895e+00 9.696411341428756714e-02 3.916622400283813477e+00 7.484703660011291504e-01 -2.813898026943206787e-01 -1.966937899589538574e+00 -4.344773292541503906e-01 -6.891486167907714844e+00 4.459312856197357178e-01 2.660433292388916016e+00 -2.351616770029067993e-01 6.768859922885894775e-03 -1.028256535530090332e+00 4.043871760368347168e-01 -3.030574321746826172e+00 9.074475169181823730e-01 -6.556015014648437500e-01 1.179760098457336426e-01 1.656639814376831055e+00 -1.375245094299316406e+00 8.026835322380065918e-01 -8.882968127727508545e-02 -1.475001335144042969e+00 -2.030577421188354492e+00 -1.818331003189086914e+00 -2.461525678634643555e+00 5.351181983947753906e+00 1.477217316627502441e+00 3.521346330642700195e+00 -2.674128293991088867e+00 -2.775557041168212891e+00 -8.183584213256835938e-01 4.022644042968750000e+00 2.999108791351318359e+00 1.202376008033752441e+00 3.331424951553344727e+00 -5.742465853691101074e-01 -7.141574025154113770e-01 -1.330584585666656494e-01 -1.651470959186553955e-01 -4.518635571002960205e-01 2.367145538330078125e+00 6.734740734100341797e-01 -5.340367555618286133e-01 -9.293565750122070312e-01 -5.378255993127822876e-02 7.451967000961303711e-01 -8.489421010017395020e-01 2.759574912488460541e-02 -5.288517475128173828e+00 -7.021527290344238281e-01 4.407745301723480225e-01 3.169185638427734375e+00 -7.021024227142333984e-01 -6.993488073348999023e-01 1.669553756713867188e+00 2.165529489517211914e+00 -4.753076732158660889e-01 1.233064651489257812e+00 3.998018801212310791e-01 6.937492489814758301e-01 -9.457892775535583496e-01 -1.574107646942138672e+00 -1.926853179931640625e+00 4.182572364807128906e+00 -2.084834575653076172e+00 8.588400483131408691e-01 3.399535894393920898e+00 -5.035428404808044434e-01 -1.992931246757507324e+00 -1.770409584045410156e+00 -3.937636613845825195e+00 2.317415475845336914e+00 -3.057531118392944336e+00 -4.866965293884277344e+00 3.528841435909271240e-01 2.710032701492309570e+00 3.566933870315551758e+00 -1.231414556503295898e+00 2.705577135086059570e+00 -9.730181694030761719e-01 1.405405282974243164e+00 -6.573676466941833496e-01 -3.744815349578857422e+00 -1.922014832496643066e+00 -1.584262967109680176e+00 2.273144721984863281e+00 6.964352726936340332e-01 2.245459938421845436e-03 3.073765337467193604e-01 -1.395203351974487305e+00
2.314841032028198242e+00 2.673256993293762207e-01 -6.651882827281951904e-02 5.765497684478759766e-01 4.791014790534973145e-01 -4.785770475864410400e-01 1.680695414543151855e+00 5.547862052917480469e-01 -2.327367961406707764e-01 -1.038348793983459473e+00 -2.534163951873779297e+00 -8.130998164415359497e-02 -3.085376501083374023e+00 6.652508974075317383e-01 3.684799885377287865e-04 2.208370685577392578e+00 2.678251862525939941e-01 -2.323866635560989380e-01 -1.902197748422622681e-01 9.203037619590759277e-01 -5.182749032974243164e-01 -6.420246362686157227e-01 -3.429795980453491211e+00 6.343020796775817871e-01 -3.599696978926658630e-02 -8.665136098861694336e-01 3.697964847087860107e-01 9.126210957765579224e-02 -2.715711593627929688e+00 3.326531946659088135e-01 -7.793000936508178711e-01 1.463164687156677246e+00 -1.533326953649520874e-01 -4.847742617130279541e-01 2.139455556869506836e+00 2.446430623531341553e-01 -2.439370006322860718e-01 -1.160847187042236328e+00 2.746548056602478027e-01 1.554109573364257812e+00 1.814724057912826538e-01 1.936548054218292236e-01 -1.227348923683166504e+00 3.214304447174072266e+00 1.987114697694778442e-01 9.260846376419067383e-01 -2.120594978332519531e+00 -1.857305467128753662e-01 1.466698646545410156e+00 -3.053374961018562317e-02 -4.874050319194793701e-01 -3.975816071033477783e-01 1.471506476402282715e+00 -2.472969442605972290e-01 -4.189732074737548828e-01 -2.160065174102783203e-01 -8.651655912399291992e-02 -1.155304551124572754e+00 -9.291358590126037598e-01 -2.489322125911712646e-01 -1.156735301017761230e+00 -5.590642094612121582e-01 -7.282031774520874023e-01 -3.999049365520477295e-01 -9.283336997032165527e-01 7.254586368799209595e-02 5.606258511543273926e-01 3.278122663497924805e+00 1.094636693596839905e-01 6.601869463920593262e-01 -2.295526027679443359e+00 7.169397175312042236e-02 -2.907642841339111328e+00 2.126283884048461914e+00 -2.031661570072174072e-01 1.534531950950622559e+00 -2.207484096288681030e-01 -2.956279814243316650e-01 -3.838281631469726562e-01 -4.012301266193389893e-01 8.626079559326171875e-01 5.817892551422119141e-01 2.140460968017578125e+00 5.738018751144409180e-01 1.363615542650222778e-01 -1.540315270423889160e+00 -1.601754426956176758e-01 -6.807978749275207520e-01 -1.771970510482788086e+00 6.130338832736015320e-02 9.359880089759826660e-01 2.551127433776855469e+00 4.059898853302001953e-01
-8.592850565910339355e-01 -3.064338862895965576e-01 -5.780008435249328613e-01 -1.229678511619567871e+00 -1.229257807135581970e-01 1.316107362508773804e-01 4.697541594505310059e-01 -4.963520765304565430e-01 -6.892391294240951538e-02 7.183996438980102539e-01 4.679886996746063232e-01 -3.539969623088836670e-01 -1.076985955238342285e+00 -8.993045687675476074e-01 2.097696959972381592e-01 1.320397615432739258e+00 -1.229949474334716797e+00 -3.994471952319145203e-02 7.681798189878463745e-02 8.640088886022567749e-02 -2.205611467361450195e-01 1.606253027915954590e+00 2.218280732631683350e-01 -4.903700053691864014e-01 9.047707915306091309e-01 -1.433494687080383301e+00 2.075774967670440674e-02 1.322253584861755371e+00 -1.415411233901977539e+00 8.613771945238113403e-02 -8.906827569007873535e-01 1.578263640403747559e+00 -1.154236570000648499e-01 -8.498812913894653320e-01 -1.885110139846801758e+00 -5.286845564842224121e-01 -1.912843227386474609e+00 3.913029134273529053e-01 4.327599406242370605e-01 2.861638307571411133e+00 7.411060929298400879e-01 -2.352169603109359741e-01 -1.908372044563293457e+00 7.057477235794067383e-01 3.766935169696807861e-01 1.324783265590667725e-01 -1.208708524703979492e+00 6.593424826860427856e-02 -1.113674879074096680e+00 3.826477825641632080e-01 1.312229186296463013e-01 1.985878050327301025e-01 -2.428054064512252808e-02 -4.274835288524627686e-01 -1.557800769805908203e+00 4.631272256374359131e-01 4.359811842441558838e-01 1.143848061561584473e+00 8.538033068180084229e-02 -1.160878315567970276e-01 1.890217661857604980e-01 -1.691166162490844727e-01 -6.191580090671777725e-03 -3.058773517608642578e+00 1.366319656372070312e-01 1.254924535751342773e-01 2.209564924240112305e+00 9.500349760055541992e-01 4.320398867130279541e-01 3.643059134483337402e-01 4.853419363498687744e-01 -2.441952526569366455e-01 1.826171755790710449e+00 9.516807794570922852e-01 3.400449082255363464e-02 -2.185198068618774414e+00 1.733582615852355957e-01 4.589008390903472900e-01 6.052933931350708008e-01 2.188573360443115234e+00 2.826452851295471191e-01 2.392437696456909180e+00 -6.575416326522827148e-01 -3.195887207984924316e-01 1.172824263572692871e+00 -4.053235054016113281e-01 4.505700170993804932e-01 4.676689207553863525e-01 1.433297634124755859e+00 1.391324549913406372e-01 -3.339312314987182617e+00 -1.188759565353393555e+00 -6.898350268602371216e-02
9.885464906692504883e-01 -4.406156539916992188e+00 8.286126703023910522e-02 -1.894773915410041809e-02 -2.376982450485229492e+00 1.699269115924835205e-01 -2.618854284286499023e+00 9.889177083969116211e-01 3.304246068000793457e-02 -2.272177934646606445e+00 -2.373885959386825562e-01 6.581983566284179688e-01 4.177058696746826172e+00 -1.355293989181518555e+00 1.132282614707946777e+00 -1.556658148765563965e+00 1.671025454998016357e-01 -9.852424860000610352e-01 3.696928024291992188e-01 9.271454215049743652e-01 1.410497784614562988e+00 -9.215821623802185059e-01 1.217408776283264160e+00 -8.996573090553283691e-01 3.663241863250732422e+00 1.810946583747863770e+00 9.810692667961120605e-01 -4.455122470855712891e+00 3.645601034164428711e+00 -1.030954837799072266e+00 1.081794381141662598e+00 -3.136235475540161133e+00 -2.168319225311279297e-01 8.729408681392669678e-02 -2.935248374938964844e+00 -3.661013841629028320e-01 1.550148725509643555e+00 1.483407020568847656e+00 -1.192952767014503479e-01 -1.148368716239929199e+00 -1.386968046426773071e-01 -7.613360136747360229e-02 -8.605608344078063965e-01 4.803606569766998291e-01 1.943183779716491699e+00 5.172661542892456055e-01 -1.116299629211425781e+00 7.860943078994750977e-01 -5.619259923696517944e-02 1.358344554901123047e-01 1.939400792121887207e+00 -1.902106165885925293e+00 8.427029252052307129e-01 -1.165039896965026855e+00 -9.405389428138732910e-01 2.118114233016967773e+00 -1.707753777503967285e+00 1.101468443870544434e+00 -9.830310940742492676e-01 -7.147654891014099121e-01 -6.183444857597351074e-01 -1.664215445518493652e+00 8.961441516876220703e-01 4.244276046752929688e+00 1.721107959747314453e+00 -1.460847735404968262e+00 -7.427542805671691895e-01 -4.159285545349121094e+00 -1.107923388481140137e+00 4.135174453258514404e-01 2.185468673706054688e+00 -1.042013645172119141e+00 -1.925330281257629395e+00 1.954459428787231445e+00 6.118322014808654785e-01 3.045419692993164062e+00 -2.267621278762817383e+00 7.525032758712768555e-01 -5.243464708328247070e-01 1.774331212043762207e+00 -1.005363821983337402e+00 2.128869533538818359e+00 1.876700878143310547e+00 -3.481399416923522949e-01 -1.348693251609802246e+00 1.718415379524230957e+00 3.647969067096710205e-01 -2.247211694717407227e+00 1.359387040138244629e+00 1.465009570121765137e+00 7.891958951950073242e-01 -1.630957245826721191e+00 -9.807791709899902344e-01
1.052344068884849548e-01 -2.992959925904870033e-03 -2.120947986841201782e-01 -3.139627277851104736e-01 4.116139411926269531e-01 8.760809898376464844e-03 -3.645762056112289429e-02 6.125676631927490234e-01 -1.033324003219604492e+00 1.599182844161987305e+00 -1.459017395973205566e+00 4.990972578525543213e-01 -8.412622213363647461e-01 -4.540617763996124268e-01 2.172423303127288818e-01 1.371626138687133789e+00 -1.625793814659118652e+00 -2.573567070066928864e-02 -5.692387223243713379e-01 1.878038048744201660e+00 -2.882274687290191650e-01 -2.586153149604797363e-01 1.654468297958374023e+00 -4.595299065113067627e-02 -1.395635366439819336e+00 1.333157896995544434e+00 -1.031096503138542175e-01 -4.119429886341094971e-01 2.278669327497482300e-01 1.679402738809585571e-01 5.032905340194702148e-01 2.022926807403564453e+00 1.195467263460159302e-01 -1.168988227844238281e+00 1.021605014801025391e+00 1.202684193849563599e-01 2.500173568725585938e+00 3.843847215175628662e-01 -3.329131305217742920e-01 2.797670364379882812e-01 -2.843647003173828125e-01 5.915146470069885254e-01 -1.166536927223205566e+00 -1.584968805313110352e+00 2.245307117700576782e-01 1.655526876449584961e+00 -2.487925440073013306e-01 -3.395622670650482178e-01 -5.206102132797241211e-02 -7.359614968299865723e-01 4.314986988902091980e-02 9.283007979393005371e-01 1.415511131286621094e+00 -4.458457976579666138e-02 -8.975636959075927734e-01 -7.882182598114013672e-01 -2.009674459695816040e-01 1.922854036092758179e-02 -8.198490142822265625e-01 2.405350953340530396e-01 1.554071903228759766e+00 1.074679136276245117e+00 -2.045249938964843750e-01 -3.052154541015625000e+00 6.997981071472167969e-01 3.540192842483520508e-01 5.037747621536254883e-01 3.299972116947174072e-01 2.814674973487854004e-01 1.165371417999267578e+00 -2.514624595642089844e+00 -4.474050104618072510e-01 -5.596458911895751953e-01 -1.224121212959289551e+00 -4.887995123863220215e-02 1.028772354125976562e+00 3.067255020141601562e+00 9.630413651466369629e-01 1.122757315635681152e+00 -2.523775815963745117e+00 -8.767487406730651855e-01 -1.670083522796630859e+00 -1.462745904922485352e+00 2.230288237333297729e-01 3.950042724609375000e-01 -2.680726349353790283e-01 1.647007912397384644e-01 -1.104153394699096680e+00 -7.355082035064697266e-01 -1.162106692790985107e-01 -1.233780622482299805e+00 5.989992618560791016e-01 1.013974994421005249e-01
5.989567041397094727e-01 -1.219037175178527832e+00 -1.859881430864334106e-01 1.257386803627014160e+00 1.699769020080566406e+00 -1.381479978561401367e+00 -9.254266619682312012e-01 8.391506195068359375e+00 5.154123902320861816e-01 -5.941765308380126953e-01 -9.340546131134033203e-01 -4.903632402420043945e-01 4.143859386444091797e+00 -2.756155729293823242e-01 1.651105642318725586e+00 -5.371296882629394531e+00 2.913342714309692383e+00 -2.175588458776473999e-01 -4.928650856018066406e+00 -2.391348600387573242e+00 3.765268623828887939e-01 5.933317661285400391e+00 3.070547103881835938e+00 -2.667472660541534424e-01 -3.065467834472656250e+00 -5.452881336212158203e+00 1.471701860427856445e+00 3.824261426925659180e+00 4.724759101867675781e+00 1.231078624725341797e+00 1.471265792846679688e+00 -1.844390153884887695e+00 3.924454748630523682e-01 -2.133736610412597656e+00 -2.012742757797241211e+00 -1.777176499366760254e+00 3.429242610931396484e+00 9.664283692836761475e-02 1.222979187965393066e+00 -9.574881792068481445e-01 2.218814373016357422e+00 2.950336933135986328e-01 -1.666233777999877930e+00 -1.826662778854370117e+00 -1.191320180892944336e+00 -3.734827756881713867e+00 -1.537175416946411133e+00 -2.717889308929443359e+00 5.765095353126525879e-01 -2.721522331237792969e+00 -3.506239652633666992e-01 3.697820901870727539e-01 -1.227194070816040039e-01 2.731771230697631836e+00 1.757685303688049316e+00 -2.256802797317504883e+00 -2.701901435852050781e+00 -6.968850493431091309e-01 2.498007297515869141e+00 6.010575890541076660e-01 -2.784589052200317383e+00 -8.728655576705932617e-01 -9.252845644950866699e-01 1.998773217201232910e+00 -1.400361299514770508e+00 3.216622173786163330e-01 1.199515819549560547e+00 -8.580713272094726562e-01 1.668929934501647949e+00 -3.112923860549926758e+00 2.454523324966430664e+00 -1.611660242080688477e+00 -3.102810144424438477e+00 3.500813245773315430e+00 1.080491542816162109e+00 3.099110603332519531e+00 -1.313014328479766846e-01 2.155428081750869751e-01 1.006149172782897949e+00 -7.688218116760253906e+00 -3.282948732376098633e-01 -9.202351570129394531e-01 1.797870397567749023e+00 1.532958745956420898e+00 2.299062490463256836e+00 1.022613525390625000e+00 -1.790494769811630249e-01 1.985860466957092285e+00 7.296587228775024414e-01 -1.538896858692169189e-01 -9.559903740882873535e-01 -1.573097705841064453e+00 -8.294702768325805664e-01
2.253674268722534180e-01 -4.808530509471893311e-01 -3.805688619613647461e-01 3.886372447013854980e-01 4.063294231891632080e-01 1.399713605642318726e-01 -2.139719247817993164e+00 -1.018466591835021973e+00 -7.308497279882431030e-02 -1.200225129723548889e-01 -1.228603243827819824e+00 5.928598046302795410e-01 7.343494296073913574e-01 8.486571162939071655e-02 -6.651589870452880859e-01 1.679893016815185547e+00 -2.982890605926513672e+00 -5.109326243400573730e-01 -2.052433729171752930e+00 -2.063380718231201172e+00 3.452630341053009033e-01 -3.858576714992523193e-01 2.905203580856323242e+00 4.121638834476470947e-01 1.441972017288208008e+00 2.810283303260803223e-01 3.034858107566833496e-01 -9.148772060871124268e-02 -4.381797611713409424e-01 -7.379508614540100098e-01 -4.541731774806976318e-01 2.685374259948730469e+00 -5.400324463844299316e-01 -7.609274983406066895e-01 1.442446589469909668e+00 5.631332993507385254e-01 2.477358341217041016e+00 -2.086133718490600586e+00 -7.668779492378234863e-01 -9.759001135826110840e-01 2.238847166299819946e-01 8.617842942476272583e-02 -1.362737536430358887e+00 -2.890153825283050537e-01 6.234041973948478699e-02 -1.098538517951965332e+00 -1.277509808540344238e+00 6.377274394035339355e-01 3.607813715934753418e-01 9.838464856147766113e-01 7.274765372276306152e-01 -1.747268915176391602e+00 -1.742178440093994141e+00 -2.430935651063919067e-01 1.505852341651916504e+00 2.430979967117309570e+00 -9.574011713266372681e-02 -1.516287773847579956e-01 1.846738338470458984e+00 1.028007417917251587e-01 -8.709018826484680176e-01 2.885084450244903564e-01 -3.136079013347625732e-01 1.225421428680419922e-01 1.185707077383995056e-01 4.625651240348815918e-01 1.081537365913391113e+00 -3.234734535217285156e-01 -1.588379442691802979e-01 -3.112196326255798340e-01 -1.129951953887939453e+00 -1.090232610702514648e+00 4.026673734188079834e-01 -5.600014328956604004e-01 -2.603060938417911530e-02 7.139542698860168457e-01 -2.485959678888320923e-01 3.384772539138793945e-01 1.019604876637458801e-01 -2.786746919155120850e-01 1.071175001561641693e-02 2.146536588668823242e+00 -3.619678914546966553e-01 -1.721035987138748169e-01 -1.504009962081909180e+00 1.445341587066650391e+00 -1.428870018571615219e-02 1.111562609672546387e+00 9.834184050559997559e-01 4.182842671871185303e-01 -4.681451022624969482e-01 3.833400905132293701e-01 5.851024985313415527e-01
-2.335517168045043945e+00 -8.574233204126358032e-02 1.348984986543655396e-02 -2.076055526733398438e+00 -3.412993192672729492e+00 -1.952710300683975220e-01 3.877615928649902344e+00 -1.294205427169799805e+00 -7.574896216392517090e-01 -9.181681871414184570e-01 -1.134057641029357910e+00 -8.462370932102203369e-02 2.334692001342773438e+00 1.384470164775848389e-01 3.140597939491271973e-01 2.518148899078369141e+00 -1.835791468620300293e+00 1.700002074241638184e+00 7.806118726730346680e-01 -1.717124581336975098e+00 -1.608640313148498535e+00 3.025978505611419678e-01 1.197571516036987305e+00 -3.146931529045104980e-01 2.332630157470703125e+00 2.637533664703369141e+00 2.780984640121459961e+00 -8.201882839202880859e-01 2.457712173461914062e+00 -2.314259529113769531e+00 1.798181533813476562e-01 3.918800592422485352e+00 4.775893092155456543e-01 2.840258121490478516e+00 -2.321722984313964844e+00 1.071234464645385742e+00 -2.961199045181274414e+00 -7.288690190762281418e-03 -9.308286905288696289e-01 -1.212442636489868164e+00 8.857041597366333008e-01 -3.967853188514709473e-01 4.953510761260986328e+00 1.556713581085205078e-01 -7.281627655029296875e-01 -3.255234479904174805e+00 -3.445131301879882812e+00 -1.203375816345214844e+00 -3.952415466308593750e+00 -3.671620368957519531e+00 9.903969764709472656e-01 3.600957393646240234e+00 2.397646427154541016e+00 -7.257575988769531250e-01 -2.429351806640625000e+00 -3.356683731079101562e+00 -8.857287168502807617e-01 -1.482523560523986816e+00 -9.643089771270751953e-01 -1.435364007949829102e+00 -6.740716695785522461e-01 4.669629573822021484e+00 1.052498102188110352e+00 2.635334730148315430e+00 -1.280166387557983398e+00 8.672286272048950195e-01 -3.086381435394287109e+00 -2.460166692733764648e+00 -3.445101976394653320e-01 4.318397045135498047e-01 -1.203747749328613281e+00 9.963402152061462402e-01 2.476643085479736328e+00 3.232877492904663086e+00 9.834262132644653320e-01 -4.009976863861083984e+00 -2.043734073638916016e+00 5.692041516304016113e-01 -1.154174208641052246e+00 3.661211967468261719e+00 -6.561433076858520508e-01 1.789827823638916016e+00 -2.634958982467651367e+00 7.143830060958862305e-01 9.947382807731628418e-01 2.735406875610351562e+00 -6.805135011672973633e-01 1.979393243789672852e+00 2.743864536285400391e+00 6.685400605201721191e-01 -3.660917043685913086e+00 2.037366628646850586e+00 6.276995688676834106e-02
1.211227416992187500e+00 -1.335423469543457031e+00 -4.161106348037719727e-01 1.552700757980346680e+00 9.851899147033691406e-01 -5.113359093666076660e-01 1.958040237426757812e+00 -8.038145899772644043e-01 -1.335475087165832520e+00 3.250340938568115234e+00 5.744494795799255371e-01 1.753567337989807129e+00 -1.847213983535766602e+00 4.409890174865722656e+00 -2.002805918455123901e-01 1.543821215629577637e+00 -2.544586919248104095e-02 -8.149784207344055176e-01 -1.118704438209533691e+00 3.665648937225341797e+00 -2.592014074325561523e-01 -1.435240626335144043e+00 -3.596892833709716797e+00 -1.527805626392364502e-01 -3.470964133739471436e-01 -8.454856276512145996e-01 3.421023190021514893e-01 5.127483606338500977e-01 2.810765266418457031e+00 7.545452713966369629e-01 6.563760638236999512e-01 1.482178092002868652e+00 -1.460409164428710938e+00 -6.029444932937622070e-01 -6.196324825286865234e+00 -1.016409873962402344e+00 1.886043429374694824e+00 1.711158514022827148e+00 4.229705333709716797e-01 -1.462185978889465332e+00 -1.294976472854614258e+00 4.055203199386596680e-01 -8.519416451454162598e-01 3.455249309539794922e+00 6.753589957952499390e-02 -1.884421825408935547e+00 -8.600170016288757324e-01 5.324528217315673828e-01 3.173885345458984375e-01 8.374083042144775391e-01 -6.384068727493286133e-01 -5.801999568939208984e+00 -2.071394920349121094e+00 1.734946131706237793e+00 2.160644292831420898e+00 -9.316135644912719727e-01 3.375714421272277832e-01 2.988457679748535156e-01 1.407003641128540039e+00 1.792684011161327362e-02 -2.977786064147949219e+00 2.979119777679443359e+00 -1.250336408615112305e+00 -2.931329607963562012e-01 1.923185586929321289e-01 -7.425722479820251465e-01 4.286403179168701172e+00 4.987144172191619873e-01 7.331646978855133057e-02 9.600066542625427246e-01 3.236502408981323242e+00 -2.065105438232421875e+00 -1.454561591148376465e+00 4.630960822105407715e-01 9.643185734748840332e-01 -6.327236890792846680e-01 -1.245429277420043945e+00 1.026242852210998535e+00 -1.542923599481582642e-01 1.083525300025939941e+00 8.199861049652099609e-01 1.347758471965789795e-01 -2.835180759429931641e+00 1.443077802658081055e+00 8.790066242218017578e-01 -3.640854597091674805e+00 -2.054414898157119751e-01 5.028638243675231934e-01 -2.277687042951583862e-01 -3.312944769859313965e-01 -1.246987104415893555e+00 -3.881595849990844727e+00 7.040578722953796387e-01
1.351844906806945801e+00 1.512868046760559082e+00 -2.037009149789810181e-01 2.219666481018066406e+00 -2.138358831405639648e+00 -2.271230369806289673e-01 -4.958112537860870361e-01 7.298178076744079590e-01 6.797307729721069336e-01 -5.111768245697021484e-01 9.405809640884399414e-01 -8.391070365905761719e-01 -4.600092172622680664e-01 -1.746800541877746582e+00 -1.081655770540237427e-01 7.854635119438171387e-01 -2.833727836608886719e+00 -6.438201069831848145e-01 -5.998647809028625488e-01 6.125511974096298218e-02 -3.135890960693359375e-01 -1.653722047805786133e+00 1.319978356361389160e+00 1.984685808420181274e-01 -3.018995285034179688e+00 -1.352572679519653320e+00 5.129410624504089355e-01 3.752886533737182617e+00 2.820128679275512695e+00 -3.623265624046325684e-01 7.791260629892349243e-02 -6.321982145309448242e-01 4.450421631336212158e-01 8.572761714458465576e-02 8.327128291130065918e-01 -3.120460510253906250e-01 1.158298015594482422e+00 7.413480281829833984e-01 -1.040840055793523788e-03 -1.317402601242065430e+00 -1.595247268676757812e+00 -2.907362282276153564e-01 -5.262075662612915039e-01 1.101196765899658203e+00 -7.038672566413879395e-01 -1.869683027267456055e+00 -5.318764969706535339e-02 1.693397611379623413e-01 -4.837815463542938232e-01 -3.029363870620727539e+00 6.287631392478942871e-01 1.414938807487487793e+00 7.162129878997802734e-01 4.596998691558837891e-01 -1.010790824890136719e+00 -1.872367382049560547e+00 -7.992489635944366455e-02 -1.354896545410156250e+00 3.847180008888244629e-01 -2.692975699901580811e-01 5.542913675308227539e-01 -8.017075061798095703e-01 3.108987510204315186e-01 1.531881839036941528e-01 -4.041462540626525879e-01 8.202665448188781738e-01 1.952270030975341797e+00 2.664305269718170166e-01 -7.992866635322570801e-01 1.268771052360534668e+00 4.409641742706298828e+00 6.699569821357727051e-01 -1.584309816360473633e+00 -9.341530799865722656e-01 1.322426944971084595e-01 6.545410156250000000e-01 -1.455435514450073242e+00 -4.972345829010009766e-01 -7.101829648017883301e-01 1.854968190193176270e+00 -2.663202881813049316e-01 -7.290120720863342285e-01 -8.554676771163940430e-01 -3.932359814643859863e-02 2.021390199661254883e+00 2.970532655715942383e+00 5.466401576995849609e-01 -1.487960219383239746e+00 -1.323118090629577637e+00 -1.625794917345046997e-01 3.626161217689514160e-01 3.654616177082061768e-01 5.454992651939392090e-01