ITEM: TIMESTEP
3442
ITEM: NUMBER OF ATOMS
48000
ITEM: BOX BOUNDS pp pp pp
-100.0 356.83218
-100.0 366.71664
0.0 20.0
ITEM: ATOMS id type x y z
1 1 249.106 6.99161 1.86479
2 1 250.326 7.69963 1.89572
3 1 250.258 9.09056 1.90102
4 1 249.009 9.82004 1.86974
5 1 248.959 11.2232 1.88606
6 1 250.176 11.9826 1.94019
7 1 250.144 13.3616 1.96024
8 1 248.9 14.0762 1.92254
9 1 248.879 15.4736 1.93947
10 1 250.108 16.2129 1.99554
11 1 250.092 17.5924 2.00727
12 1 248.85 18.3103 1.9635
13 1 248.838 19.7072 1.97827
14 1 250.072 20.4397 2.03551
15 1 250.061 21.8195 2.04673
16 1 248.82 22.5395 2.00155
17 1 248.813 23.9365 2.01756
18 1 250.049 24.6657 2.07602
19 1 250.041 26.0456 2.09035
20 1 248.799 26.767 2.04673
21 1 248.795 28.1642 2.0662
22 1 250.033 28.8914 2.12663
23 1 250.026 30.2716 2.14309
24 1 248.785 30.9937 2.10049
25 1 248.781 32.3912 2.12304
26 1 250.021 33.1172 2.1858
27 1 250.015 34.4976 2.20594
28 1 248.773 35.22 2.16412
29 1 248.77 36.6179 2.18801
30 1 250.011 37.3432 2.25049
31 1 250.006 38.7239 2.26979
32 1 248.763 39.4465 2.22846
33 1 248.76 40.8449 2.2517
34 1 250.003 41.5698 2.31371
35 1 249.998 42.9507 2.3332
36 1 248.754 43.6734 2.29141
37 1 248.752 45.0722 2.3132
38 1 249.996 45.7966 2.37405
39 1 249.992 47.1779 2.39107
40 1 248.747 47.9007 2.34899
41 1 248.745 49.2999 2.3694
42 1 249.99 50.024 2.42945
43 1 249.986 51.4055 2.44526
44 1 248.741 52.1286 2.4022
45 1 248.74 53.5281 2.42015
46 1 249.985 54.2523 2.47889
47 1 249.981 55.634 2.49427
48 1 248.736 56.3574 2.45191
49 1 248.735 57.7573 2.46992
50 1 249.98 58.4817 2.52811
51 1 249.976 59.8635 2.5426
52 1 248.731 60.5874 2.50009
53 1 248.73 61.9875 2.51654
54 1 249.975 62.7123 2.57342
55 1 249.972 64.0943 2.58671
56 1 248.727 64.8186 2.54376
57 1 248.726 66.2189 2.55768
58 1 249.971 66.944 2.61319
59 1 249.968 68.3261 2.62385
60 1 248.722 69.0507 2.57941
61 1 248.722 70.4513 2.58952
62 1 249.967 71.1766 2.64309
63 1 249.964 72.5587 2.64985
64 1 248.719 73.2836 2.60322
65 1 248.718 74.6843 2.60853
66 1 249.964 75.4099 2.66073
67 1 249.961 76.792 2.66365
68 1 248.716 77.517 2.6136
69 1 248.715 78.9176 2.61309
70 1 249.96 79.6434 2.66303
71 1 249.957 81.0255 2.66093
72 1 248.713 81.7506 2.60812
73 1 248.712 83.1511 2.60235
74 1 249.957 83.8771 2.65024
75 1 249.955 85.259 2.64335
76 1 248.711 85.9843 2.58765
77 1 248.71 87.3846 2.57659
78 1 249.955 88.1106 2.62297
79 1 249.952 89.4925 2.61306
80 1 248.709 90.2176 2.55473
81 1 248.709 91.6176 2.53979
82 1 249.953 92.3437 2.5853
83 1 249.95 93.7254 2.57103
84 1 248.707 94.4502 2.50959
85 1 248.707 95.8499 2.49023
86 1 249.95 96.5758 2.53514
87 1 249.948 97.9573 2.51803
88 1 248.705 98.6818 2.45333
89 1 248.705 100.081 2.43024
90 1 249.948 100.807 2.47407
91 1 249.946 102.188 2.45323
92 1 248.704 102.912 2.3864
93 1 248.704 104.311 2.36101
94 1 249.947 105.036 2.40503
95 1 249.945 106.417 2.38303
96 1 248.703 107.141 2.31405
97 1 248.703 108.539 2.28626
98 1 249.946 109.264 2.33039
99 1 249.944 110.645 2.30696
100 1 248.702 111.368 2.23632
101 1 248.702 112.766 2.20644
102 1 249.945 113.491 2.2509
103 1 249.943 114.872 2.22657
104 1 248.701 115.594 2.15455
105 1 248.701 116.992 2.12373
106 1 249.943 117.716 2.16941
107 1 249.941 119.097 2.14642
108 1 248.7 119.819 2.07434
109 1 248.7 121.217 2.0448
110 1 249.943 121.94 2.0926
111 1 249.941 123.321 2.07311
112 1 248.699 124.043 2.00229
113 1 248.7 125.441 1.97603
114 1 249.942 126.164 2.02681
115 1 249.94 127.545 2.01201
116 1 248.699 128.267 1.94294
117 1 248.7 129.664 1.92083
118 1 249.942 130.388 1.97486
119 1 249.941 131.769 1.96618
120 1 248.699 132.491 1.89995
121 1 248.701 133.889 1.88381
122 1 249.943 134.612 1.942
123 1 249.941 135.993 1.94078
124 1 248.699 136.716 1.87806
125 1 248.701 138.114 1.86912
126 1 249.943 138.837 1.93207
127 1 249.941 140.218 1.93878
128 1 248.699 140.942 1.87966
129 1 248.701 142.34 1.87864
130 1 249.943 143.064 1.94653
131 1 249.941 144.444 1.96232
132 1 248.699 145.169 1.90774
133 1 248.7 146.568 1.91666
134 1 249.943 147.291 1.99021
135 1 249.941 148.672 2.01648
136 1 248.699 149.398 1.96723
137 1 248.7 150.797 1.9871
138 1 249.943 151.521 2.06664
139 1 249.942 152.902 2.10322
140 1 248.699 153.628 2.05917
141 1 248.701 155.028 2.08964
142 1 249.944 155.752 2.17489
143 1 249.943 157.133 2.22051
144 1 248.7 157.861 2.17998
145 1 248.702 159.261 2.21761
146 1 249.946 159.986 2.30608
147 1 249.945 161.367 2.35555
148 1 248.7 162.096 2.31644
149 1 248.703 163.498 2.35644
150 1 249.948 164.223 2.44533
151 1 249.947 165.605 2.49515
152 1 248.702 166.335 2.45696
153 1 248.703 167.737 2.49953
154 1 249.949 168.463 2.58774
155 1 249.948 169.846 2.63659
156 1 248.703 170.577 2.59861
157 1 248.704 171.98 2.6411
158 1 249.951 172.707 2.72699
159 1 249.95 174.091 2.77079
160 1 248.704 174.823 2.73042
161 1 248.705 176.227 2.76767
162 1 249.953 176.956 2.84877
163 1 249.952 178.34 2.88353
164 1 248.705 179.073 2.83862
165 1 248.707 180.478 2.86616
166 1 249.956 181.208 2.94026
167 1 249.955 182.592 2.96168
168 1 248.707 183.325 2.90964
169 1 248.709 184.732 2.92248
170 1 249.959 185.462 2.98792
171 1 249.958 186.847 2.99245
172 1 248.71 187.58 2.93139
173 1 248.712 188.986 2.92786
174 1 249.962 189.716 2.98484
175 1 249.961 191.101 2.97395
176 1 248.714 191.833 2.9049
177 1 248.716 193.239 2.88901
178 1 249.965 193.969 2.94031
179 1 249.964 195.353 2.91862
180 1 248.719 196.085 2.84375
181 1 248.72 197.489 2.82038
182 1 249.969 198.219 2.86863
183 1 249.968 199.602 2.83891
184 1 248.723 200.333 2.75895
185 1 248.725 201.737 2.73011
186 1 249.973 202.465 2.77597
187 1 249.973 203.848 2.73971
188 1 248.729 204.578 2.65593
189 1 248.73 205.98 2.625
190 1 249.978 206.708 2.67023
191 1 249.977 208.09 2.63215
192 1 248.735 208.819 2.54816
193 1 248.736 210.221 2.52118
194 1 249.983 210.947 2.56863
195 1 249.983 212.33 2.53443
196 1 248.741 213.058 2.45237
197 1 248.743 214.459 2.43057
198 1 249.989 215.185 2.48121
199 1 249.99 216.567 2.45219
200 1 248.749 217.295 2.37265
201 1 248.751 218.696 2.35667
202 1 249.996 219.42 2.41056
203 1 249.997 220.802 2.38801
204 1 248.757 221.53 2.31227
205 1 248.76 222.93 2.30328
206 1 250.005 223.654 2.3606
207 1 250.006 225.035 2.34511
208 1 248.767 225.764 2.27285
209 1 248.771 227.164 2.26917
210 1 250.015 227.886 2.32884
211 1 250.017 229.268 2.31669
212 1 248.778 229.997 2.24586
213 1 248.783 231.396 2.2436
214 1 250.027 232.118 2.3034
215 1 250.03 233.499 2.29209
216 1 248.792 234.229 2.22245
217 1 248.797 235.627 2.22081
218 1 250.042 236.348 2.27998
219 1 250.046 237.729 2.27026
220 1 248.808 238.46 2.20302
221 1 248.814 239.858 2.20368
222 1 250.06 240.578 2.26314
223 1 250.064 241.959 2.25623
224 1 248.827 242.69 2.19117
225 1 248.835 244.089 2.19345
226 1 250.081 244.808 2.25271
227 1 250.086 246.188 2.24664
228 1 248.852 246.922 2.18248
229 1 248.863 248.32 2.18391
230 1 250.109 249.038 2.2402
231 1 250.118 250.418 2.22664
232 1 248.891 251.16 2.15741
233 1 248.914 252.558 2.14089
234 1 250.157 253.275 2.18329
235 1 250.182 254.654 2.15629
236 1 248.977 255.425 2.10108
237 1 249.038 256.83 2.12169
238 1 250.278 257.572 2.14607
239 1 250.357 258.965 2.15702
240 1 249.141 259.676 2.1551
241 1 246.567 6.99546 1.70735
242 1 247.823 7.64726 1.8074
243 1 247.78 9.08973 1.79664
244 1 246.53 9.79055 1.67254
245 1 246.49 11.2122 1.6909
246 1 247.71 11.9256 1.82105
247 1 247.677 13.3486 1.83121
248 1 246.444 14.0447 1.70205
249 1 246.419 15.4616 1.7219
250 1 247.638 16.1733 1.86289
251 1 247.622 17.5928 1.86891
252 1 246.392 18.2871 1.73316
253 1 246.378 19.7021 1.75345
254 1 247.599 20.4081 1.89793
255 1 247.589 21.8267 1.90437
256 1 246.36 22.5216 1.76795
257 1 246.351 23.9359 1.7907
258 1 247.574 24.6385 1.93734
259 1 247.567 26.057 1.94692
260 1 246.338 26.7523 1.81211
261 1 246.331 28.1664 1.8381
262 1 247.556 28.8669 1.98648
263 1 247.551 30.2854 1.99885
264 1 246.321 30.9811 1.86609
265 1 246.316 32.3951 1.89439
266 1 247.542 33.0941 2.04431
267 1 247.538 34.5128 2.06056
268 1 246.308 35.2087 1.93001
269 1 246.303 36.6229 1.95942
270 1 247.53 37.321 2.10946
271 1 247.527 38.74 2.12602
272 1 246.296 39.436 1.99673
273 1 246.292 40.8504 2.02435
274 1 247.52 41.5481 2.17306
275 1 247.517 42.9675 2.18912
276 1 246.286 43.6635 2.06006
277 1 246.283 45.0781 2.0859
278 1 247.512 45.7756 2.2335
279 1 247.509 47.1952 2.24813
280 1 246.278 47.8913 2.11968
281 1 246.275 49.3062 2.1438
282 1 247.504 50.0034 2.28932
283 1 247.503 51.4234 2.30279
284 1 246.27 52.1197 2.17614
285 1 246.268 53.5348 2.19918
286 1 247.498 54.2318 2.34012
287 1 247.497 55.6522 2.35364
288 1 246.264 56.3486 2.23144
289 1 246.262 57.7641 2.25424
290 1 247.493 58.4612 2.39068
291 1 247.492 59.8819 2.40346
292 1 246.258 60.5787 2.28464
293 1 246.256 61.9944 2.30541
294 1 247.488 62.6918 2.43758
295 1 247.487 64.1128 2.44913
296 1 246.253 64.8098 2.33255
297 1 246.251 66.2258 2.34951
298 1 247.484 66.9235 2.47759
299 1 247.483 68.3448 2.48679
300 1 246.248 69.0419 2.37123
301 1 246.247 70.4582 2.38343
302 1 247.48 71.156 2.50743
303 1 247.479 72.5775 2.51313
304 1 246.244 73.2747 2.39723
305 1 246.243 74.691 2.40297
306 1 247.477 75.3892 2.52336
307 1 247.476 76.8107 2.52524
308 1 246.241 77.5079 2.4071
309 1 246.241 78.9242 2.40669
310 1 247.474 79.6227 2.52424
311 1 247.473 81.0442 2.52206
312 1 246.239 81.7413 2.40145
313 1 246.239 83.1576 2.39487
314 1 247.472 83.8563 2.5102
315 1 247.471 85.2777 2.50389
316 1 246.237 85.9747 2.38021
317 1 246.237 87.3908 2.367
318 1 247.471 88.0897 2.48119
319 1 247.469 89.5109 2.47166
320 1 246.236 90.2077 2.34453
321 1 246.237 91.6235 2.32625
322 1 247.469 92.3226 2.44065
323 1 247.468 93.7435 2.42766
324 1 246.236 94.4399 2.2969
325 1 246.236 95.8553 2.2731
326 1 247.468 96.5546 2.3875
327 1 247.467 97.975 2.37121
328 1 246.235 98.6707 2.23625
329 1 246.235 100.086 2.20901
330 1 247.467 100.785 2.32427
331 1 247.466 102.205 2.3048
332 1 246.235 102.9 2.16624
333 1 246.235 104.315 2.13642
334 1 247.466 105.015 2.25281
335 1 247.465 106.434 2.2319
336 1 246.235 107.129 2.08978
337 1 246.235 108.543 2.05764
338 1 247.466 109.243 2.17556
339 1 247.465 110.662 2.15394
340 1 246.235 111.356 2.00883
341 1 246.235 112.77 1.97427
342 1 247.465 113.469 2.09335
343 1 247.464 114.888 2.07145
344 1 246.235 115.582 1.92385
345 1 246.235 116.995 1.88816
346 1 247.465 117.695 2.00913
347 1 247.463 119.113 1.98957
348 1 246.234 119.807 1.84122
349 1 246.235 121.22 1.80666
350 1 247.464 121.919 1.93003
351 1 247.463 123.338 1.91494
352 1 246.234 124.031 1.76707
353 1 246.235 125.445 1.73544
354 1 247.464 126.143 1.86181
355 1 247.463 127.562 1.85253
356 1 246.234 128.255 1.70599
357 1 246.235 129.669 1.67845
358 1 247.464 130.367 1.80796
359 1 247.463 131.786 1.80586
360 1 246.234 132.48 1.66181
361 1 246.236 133.894 1.64013
362 1 247.465 134.592 1.77313
363 1 247.463 136.011 1.77952
364 1 246.234 136.706 1.63855
365 1 246.236 138.12 1.62407
366 1 247.465 138.818 1.76093
367 1 247.463 140.237 1.77627
368 1 246.234 140.933 1.63919
369 1 246.235 142.348 1.63319
370 1 247.465 143.045 1.77372
371 1 247.462 144.464 1.7988
372 1 246.233 145.161 1.66704
373 1 246.235 146.577 1.67121
374 1 247.464 147.274 1.81604
375 1 247.462 148.693 1.85203
376 1 246.233 149.392 1.72595
377 1 246.234 150.808 1.74129
378 1 247.464 151.504 1.89091
379 1 247.462 152.924 1.93778
380 1 246.232 153.624 1.81724
381 1 246.233 155.04 1.84323
382 1 247.464 155.737 1.99728
383 1 247.462 157.157 2.05312
384 1 246.231 157.857 1.93583
385 1 246.232 159.275 1.97033
386 1 247.464 159.971 2.12714
387 1 247.462 161.392 2.18737
388 1 246.23 162.093 2.07206
389 1 246.231 163.512 2.11118
390 1 247.464 164.208 2.26667
391 1 247.462 165.63 2.3271
392 1 246.23 166.332 2.21717
393 1 246.23 167.751 2.25989
394 1 247.464 168.448 2.41176
395 1 247.462 169.871 2.46946
396 1 246.228 170.574 2.36375
397 1 246.229 171.994 2.40637
398 1 247.463 172.692 2.55342
399 1 247.463 174.116 2.604
400 1 246.228 174.819 2.49917
401 1 246.228 176.24 2.53668
402 1 247.464 176.939 2.67767
403 1 247.464 178.364 2.71676
404 1 246.228 179.068 2.60961
405 1 246.228 180.49 2.63749
406 1 247.464 181.19 2.77137
407 1 247.465 182.616 2.79454
408 1 246.228 183.32 2.68159
409 1 246.229 184.743 2.6947
410 1 247.466 185.444 2.8203
411 1 247.467 186.87 2.824
412 1 246.231 187.573 2.70296
413 1 246.232 188.996 2.69969
414 1 247.47 189.697 2.81787
415 1 247.471 191.124 2.80358
416 1 246.235 191.826 2.67489
417 1 246.237 193.248 2.65931
418 1 247.474 193.95 2.77308
419 1 247.476 195.375 2.74565
420 1 246.241 196.077 2.61076
421 1 246.243 197.498 2.58744
422 1 247.48 198.199 2.69997
423 1 247.482 199.624 2.66247
424 1 246.248 200.325 2.52157
425 1 246.25 201.745 2.49297
426 1 247.485 202.446 2.60585
427 1 247.488 203.869 2.55986
428 1 246.255 204.569 2.41348
429 1 246.257 205.989 2.3833
430 1 247.492 206.689 2.49928
431 1 247.495 208.111 2.45032
432 1 246.263 208.812 2.3015
433 1 246.266 210.23 2.2761
434 1 247.499 210.929 2.39756
435 1 247.502 212.351 2.35186
436 1 246.272 213.052 2.20362
437 1 246.274 214.47 2.18507
438 1 247.506 215.168 2.30957
439 1 247.51 216.589 2.26959
440 1 246.281 217.29 2.12436
441 1 246.283 218.708 2.11306
442 1 247.515 219.404 2.23935
443 1 247.519 220.825 2.2067
444 1 246.291 221.527 2.06558
445 1 246.293 222.944 2.06161
446 1 247.525 223.64 2.19031
447 1 247.53 225.06 2.16502
448 1 246.301 225.762 2.02708
449 1 246.304 227.179 2.02844
450 1 247.536 227.873 2.15888
451 1 247.541 229.294 2.13776
452 1 246.313 229.996 2.00125
453 1 246.317 231.412 2.00431
454 1 247.549 232.106 2.13477
455 1 247.554 233.526 2.11545
456 1 246.327 234.229 1.97987
457 1 246.331 235.645 1.98394
458 1 247.563 236.338 2.11418
459 1 247.57 237.758 2.09712
460 1 246.343 238.461 1.96286
461 1 246.349 239.877 1.96879
462 1 247.581 240.569 2.09994
463 1 247.589 241.989 2.08585
464 1 246.363 242.694 1.95192
465 1 246.37 244.11 1.95887
466 1 247.603 244.802 2.09156
467 1 247.613 246.222 2.0786
468 1 246.389 246.93 1.94261
469 1 246.401 248.346 1.94865
470 1 247.634 249.039 2.08259
471 1 247.651 250.459 2.06552
472 1 246.432 251.174 1.92977
473 1 246.458 252.592 1.93632
474 1 247.694 253.29 2.04314
475 1 247.733 254.716 2.02741
476 1 246.51 255.437 1.97409
477 1 246.557 256.86 2.05902
478 1 247.811 257.568 2.11114
479 1 247.86 259.018 2.1414
480 1 246.601 259.662 2.15329
481 1 244.082 6.99769 1.43806
482 1 245.324 7.65504 1.53999
483 1 245.302 9.08552 1.52849
484 1 244.064 9.79196 1.43283
485 1 244.036 11.2084 1.44842
486 1 245.258 11.9143 1.5591
487 1 245.229 13.331 1.55974
488 1 244.002 14.0352 1.47071
489 1 243.98 15.4487 1.48012
490 1 245.195 16.1608 1.58667
491 1 245.177 17.575 1.58916
492 1 243.954 18.2769 1.50247
493 1 243.939 19.6889 1.51449
494 1 245.155 20.3998 1.61916
495 1 245.144 21.8129 1.62437
496 1 243.921 22.5135 1.54031
497 1 243.911 23.9247 1.55512
498 1 245.128 24.6335 1.6586
499 1 245.12 26.0462 1.66849
500 1 243.897 26.7461 1.58753
501 1 243.889 28.1571 1.60632
502 1 245.108 28.8641 1.7092
503 1 245.102 30.2768 1.72343
504 1 243.878 30.9764 1.64505
505 1 243.872 32.3873 1.66736
506 1 245.092 33.093 1.76971
507 1 245.087 34.5057 1.78834
508 1 243.863 35.2051 1.71148
509 1 243.858 36.6161 1.73546
510 1 245.078 37.3208 1.83703
511 1 245.074 38.7336 1.85706
512 1 243.849 39.433 1.77948
513 1 243.845 40.8442 1.80267
514 1 245.067 41.5485 1.90264
515 1 245.063 42.9615 1.92226
516 1 243.838 43.6609 1.84391
517 1 243.835 45.0724 1.86596
518 1 245.057 45.7764 1.96449
519 1 245.054 47.1896 1.98349
520 1 243.828 47.8892 1.90437
521 1 243.825 49.3009 1.92557
522 1 245.048 50.0047 2.02294
523 1 245.046 51.4182 2.04175
524 1 243.82 52.118 1.96301
525 1 243.817 53.53 1.98423
526 1 245.041 54.2337 2.08061
527 1 245.038 55.6473 2.0993
528 1 243.812 56.3475 2.02082
529 1 243.81 57.7598 2.04175
530 1 245.034 58.4634 2.13733
531 1 245.032 59.8773 2.15508
532 1 243.806 60.5779 2.0768
533 1 243.804 61.9905 2.0962
534 1 245.028 62.6941 2.19015
535 1 245.026 64.1082 2.20592
536 1 243.8 64.8094 2.12715
537 1 243.798 66.2221 2.14346
538 1 245.023 66.9259 2.2351
539 1 245.021 68.3402 2.24761
540 1 243.795 69.0418 2.16815
541 1 243.793 70.4547 2.18038
542 1 245.019 71.1585 2.26909
543 1 245.017 72.573 2.27698
544 1 243.791 73.275 2.19606
545 1 243.79 74.688 2.20202
546 1 245.015 75.3916 2.28745
547 1 245.014 76.8061 2.28985
548 1 243.788 77.5086 2.20695
549 1 243.787 78.9216 2.20687
550 1 245.013 79.625 2.28952
551 1 245.012 81.0395 2.28675
552 1 243.786 81.7424 2.20194
553 1 243.786 83.1553 2.19603
554 1 245.011 83.8585 2.27605
555 1 245.01 85.2728 2.26796
556 1 243.785 85.976 2.18095
557 1 243.785 87.3887 2.16916
558 1 245.01 88.0917 2.2466
559 1 245.01 89.5058 2.23379
560 1 243.785 90.2089 2.1451
561 1 243.785 91.6214 2.12865
562 1 245.01 92.3242 2.2042
563 1 245.009 93.738 2.1874
564 1 243.785 94.4408 2.09706
565 1 243.785 95.853 2.07631
566 1 245.009 96.5556 2.14948
567 1 245.009 97.969 2.12853
568 1 243.785 98.6716 2.03749
569 1 243.785 100.083 2.01329
570 1 245.009 100.786 2.08438
571 1 245.009 102.199 2.06019
572 1 243.785 102.901 1.96866
573 1 243.785 104.312 1.94189
574 1 245.009 105.015 2.01122
575 1 245.009 106.427 1.98483
576 1 243.786 107.129 1.89309
577 1 243.786 108.54 1.86459
578 1 245.01 109.242 1.93223
579 1 245.01 110.655 1.90471
580 1 243.786 111.356 1.81318
581 1 243.786 112.767 1.78328
582 1 245.01 113.468 1.84869
583 1 245.01 114.881 1.82032
584 1 243.786 115.581 1.72994
585 1 243.786 116.992 1.70009
586 1 245.01 117.694 1.76376
587 1 245.01 119.106 1.73727
588 1 243.786 119.806 1.64954
589 1 243.786 121.217 1.62195
590 1 245.01 121.918 1.6847
591 1 245.01 123.33 1.66185
592 1 243.786 124.031 1.5777
593 1 243.786 125.441 1.55421
594 1 245.01 126.143 1.61678
595 1 245.01 127.555 1.59906
596 1 243.786 128.256 1.51938
597 1 243.786 129.666 1.50116
598 1 245.01 130.368 1.56397
599 1 245.01 131.78 1.55267
600 1 243.786 132.481 1.47823
601 1 243.786 133.892 1.46676
602 1 245.01 134.593 1.53067
603 1 245.01 136.006 1.52679
604 1 243.785 136.707 1.45811
605 1 243.786 138.118 1.45449
606 1 245.01 138.82 1.52026
607 1 245.009 140.233 1.52476
608 1 243.785 140.934 1.46247
609 1 243.785 142.346 1.46785
610 1 245.009 143.048 1.53598
611 1 245.009 144.461 1.54981
612 1 243.783 145.163 1.49442
613 1 243.784 146.575 1.5098
614 1 245.008 147.278 1.58106
615 1 245.008 148.691 1.60515
616 1 243.782 149.394 1.55666
617 1 243.782 150.807 1.58282
618 1 245.006 151.51 1.65812
619 1 245.006 152.923 1.69268
620 1 243.78 153.627 1.65022
621 1 243.78 155.04 1.68634
622 1 245.005 155.743 1.76571
623 1 245.005 157.157 1.80878
624 1 243.778 157.861 1.77084
625 1 243.778 159.274 1.8147
626 1 245.003 159.978 1.89686
627 1 245.003 161.393 1.94517
628 1 243.776 162.097 1.91056
629 1 243.775 163.511 1.95895
630 1 245.002 164.215 2.04153
631 1 245.001 165.631 2.0927
632 1 243.773 166.336 2.06036
633 1 243.773 167.751 2.11028
634 1 245.0 168.456 2.19247
635 1 244.999 169.872 2.24295
636 1 243.77 170.578 2.20985
637 1 243.77 171.994 2.25712
638 1 244.998 172.699 2.33789
639 1 244.998 174.117 2.38328
640 1 243.768 174.823 2.34642
641 1 243.768 176.241 2.38664
642 1 244.997 176.946 2.46412
643 1 244.997 178.365 2.5
644 1 243.767 179.072 2.45714
645 1 243.766 180.49 2.48622
646 1 244.996 181.197 2.5583
647 1 244.996 182.616 2.5802
648 1 243.766 183.324 2.52938
649 1 243.767 184.743 2.54277
650 1 244.997 185.449 2.60679
651 1 244.998 186.869 2.61119
652 1 243.769 187.577 2.55207
653 1 243.77 188.996 2.54832
654 1 245.001 189.702 2.60324
655 1 245.003 191.122 2.59144
656 1 243.774 191.83 2.52619
657 1 243.776 193.248 2.50897
658 1 245.007 193.954 2.55643
659 1 245.009 195.373 2.53308
660 1 243.78 196.081 2.46374
661 1 243.783 197.498 2.43702
662 1 245.014 198.203 2.47922
663 1 245.016 199.621 2.44758
664 1 243.788 200.329 2.37495
665 1 243.791 201.746 2.34119
666 1 245.021 202.45 2.37949
667 1 245.024 203.867 2.34153
668 1 243.797 204.574 2.26683
669 1 243.8 205.99 2.22958
670 1 245.03 206.693 2.26648
671 1 245.032 208.11 2.22796
672 1 243.807 208.817 2.1538
673 1 243.81 210.232 2.11955
674 1 245.039 210.935 2.15885
675 1 245.042 212.351 2.12562
676 1 243.817 213.058 2.05341
677 1 243.82 214.472 2.02561
678 1 245.049 215.174 2.06909
679 1 245.051 216.59 2.04227
680 1 243.827 217.297 1.97207
681 1 243.831 218.711 1.95113
682 1 245.059 219.412 1.99916
683 1 245.062 220.827 1.97921
684 1 243.838 221.535 1.91088
685 1 243.842 222.948 1.89698
686 1 245.069 223.649 1.94985
687 1 245.073 225.063 1.93638
688 1 243.85 225.77 1.86891
689 1 243.854 227.183 1.86034
690 1 245.081 227.884 1.91748
691 1 245.085 229.298 1.90759
692 1 243.863 230.005 1.83891
693 1 243.867 231.418 1.8326
694 1 245.094 232.117 1.89266
695 1 245.098 233.531 1.88413
696 1 243.877 234.239 1.81396
697 1 243.882 235.651 1.80923
698 1 245.109 236.35 1.87178
699 1 245.114 237.764 1.86492
700 1 243.893 238.472 1.7939
701 1 243.9 239.884 1.79115
702 1 245.127 240.583 1.85621
703 1 245.134 241.997 1.85107
704 1 243.914 242.706 1.77868
705 1 243.922 244.119 1.77679
706 1 245.15 244.818 1.84399
707 1 245.16 246.232 1.83875
708 1 243.941 246.944 1.76433
709 1 243.956 248.357 1.76226
710 1 245.183 249.058 1.83007
711 1 245.202 250.474 1.82604
712 1 243.984 251.187 1.76011
713 1 244.009 252.602 1.77748
714 1 245.24 253.309 1.84765
715 1 245.274 254.728 1.89065
716 1 244.048 255.438 1.90436
717 1 244.081 256.856 2.02294
718 1 245.323 257.57 2.08217
719 1 245.347 259.006 2.14056
720 1 244.101 259.657 2.17281
721 1 241.605 7.00457 1.34129
722 1 242.844 7.66552 1.35414
723 1 242.833 9.09185 1.3539
724 1 241.6 9.79997 1.32577
725 1 241.581 11.2135 1.3439
726 1 242.806 11.9142 1.39411
727 1 242.783 13.3274 1.40299
728 1 241.557 14.0339 1.37432
729 1 241.537 15.4457 1.38319
730 1 242.756 16.154 1.42755
731 1 242.737 17.5658 1.43695
732 1 241.515 18.2712 1.41017
733 1 241.5 19.6821 1.4209
734 1 242.717 20.3922 1.4643
735 1 242.704 21.803 1.4759
736 1 241.482 22.5068 1.45035
737 1 241.471 23.9171 1.46352
738 1 242.688 24.6268 1.50712
739 1 242.679 26.0371 1.52246
740 1 241.457 26.7397 1.49795
741 1 241.449 28.1497 1.51458
742 1 242.667 28.8584 1.55987
743 1 242.66 30.2686 1.57882
744 1 241.437 30.9705 1.55415
745 1 241.43 32.3803 1.57417
746 1 242.649 33.0881 1.6219
747 1 242.643 34.4983 1.64404
748 1 241.421 35.1997 1.61817
749 1 241.415 36.6096 1.63977
750 1 242.634 37.3166 1.68899
751 1 242.629 38.7269 1.71148
752 1 241.406 39.4281 1.68288
753 1 241.401 40.8382 1.70428
754 1 242.621 41.5447 1.75441
755 1 242.617 42.9552 1.77621
756 1 241.394 43.6564 1.7452
757 1 241.389 45.0667 1.76585
758 1 242.61 45.7729 1.81618
759 1 242.607 47.1838 1.83698
760 1 241.383 47.885 1.80396
761 1 241.379 49.2956 1.82415
762 1 242.601 50.0017 1.87491
763 1 242.598 51.4127 1.8957
764 1 241.373 52.1142 1.86165
765 1 241.37 53.525 1.88185
766 1 242.592 54.231 1.93303
767 1 242.59 55.6423 1.95336
768 1 241.365 56.3442 1.91822
769 1 241.363 57.7552 1.93821
770 1 242.585 58.4612 1.98997
771 1 242.582 59.8728 2.00976
772 1 241.358 60.5751 1.97357
773 1 241.356 61.9864 1.99218
774 1 242.578 62.6923 2.04366
775 1 242.576 64.1042 2.0611
776 1 241.352 64.8071 2.02328
777 1 241.35 66.2186 2.03913
778 1 242.573 66.9246 2.08965
779 1 242.571 68.3366 2.10371
780 1 241.347 69.0402 2.06442
781 1 241.345 70.4519 2.07646
782 1 242.568 71.1578 2.12525
783 1 242.567 72.57 2.13427
784 1 241.343 73.2742 2.09269
785 1 241.342 74.686 2.09863
786 1 242.565 75.3917 2.14479
787 1 242.564 76.8038 2.14771
788 1 241.34 77.5086 2.10397
789 1 241.339 78.9204 2.1041
790 1 242.563 79.6257 2.14781
791 1 242.562 81.0379 2.14499
792 1 241.339 81.7431 2.09919
793 1 241.338 83.1548 2.09357
794 1 242.561 83.8598 2.13496
795 1 242.561 85.2718 2.1264
796 1 241.338 85.9774 2.0787
797 1 241.337 87.3889 2.06766
798 1 242.561 88.0934 2.1065
799 1 242.561 89.5052 2.09285
800 1 241.338 90.2106 2.04389
801 1 241.338 91.6219 2.0282
802 1 242.561 92.3259 2.06467
803 1 242.561 93.7374 2.04676
804 1 241.338 94.4427 1.99689
805 1 241.338 95.8537 1.97733
806 1 242.561 96.5573 2.01143
807 1 242.561 97.9684 1.98962
808 1 241.339 98.6735 1.93923
809 1 241.339 100.084 1.9161
810 1 242.562 100.787 1.9478
811 1 242.562 102.198 1.92279
812 1 241.339 102.903 1.87209
813 1 241.339 104.313 1.8464
814 1 242.562 105.016 1.87618
815 1 242.562 106.426 1.84904
816 1 241.34 107.131 1.79876
817 1 241.34 108.541 1.77168
818 1 242.563 109.243 1.79944
819 1 242.563 110.653 1.77109
820 1 241.341 111.357 1.72192
821 1 241.341 112.767 1.69409
822 1 242.563 113.469 1.71935
823 1 242.563 114.879 1.69031
824 1 241.341 115.582 1.64339
825 1 241.341 116.992 1.61595
826 1 242.563 117.694 1.63896
827 1 242.563 119.104 1.61144
828 1 241.341 119.807 1.5679
829 1 241.341 121.217 1.54287
830 1 242.563 121.919 1.5646
831 1 242.563 123.329 1.54036
832 1 241.341 124.031 1.50117
833 1 241.341 125.441 1.48039
834 1 242.563 126.143 1.50158
835 1 242.563 127.553 1.48225
836 1 241.341 128.256 1.44824
837 1 241.341 129.666 1.4328
838 1 242.563 130.368 1.45389
839 1 242.563 131.778 1.44055
840 1 241.34 132.481 1.4121
841 1 241.34 133.891 1.40328
842 1 242.562 134.594 1.42528
843 1 242.563 136.004 1.4191
844 1 241.339 136.707 1.39656
845 1 241.339 138.117 1.39531
846 1 242.562 138.82 1.41905
847 1 242.562 140.231 1.42121
848 1 241.338 140.934 1.40473
849 1 241.338 142.345 1.41226
850 1 242.56 143.049 1.43877
851 1 242.56 144.46 1.45026
852 1 241.336 145.163 1.43992
853 1 241.336 146.574 1.457
854 1 242.559 147.278 1.48711
855 1 242.559 148.69 1.50866
856 1 241.334 149.393 1.50413
857 1 241.334 150.805 1.53113
858 1 242.557 151.51 1.56587
859 1 242.556 152.922 1.59757
860 1 241.331 153.626 1.59764
861 1 241.331 155.038 1.63401
862 1 242.554 155.743 1.67371
863 1 242.554 157.156 1.7141
864 1 241.328 157.86 1.71749
865 1 241.327 159.272 1.76145
866 1 242.551 159.978 1.80505
867 1 242.551 161.391 1.85159
868 1 241.325 162.096 1.85701
869 1 241.323 163.509 1.90568
870 1 242.548 164.216 1.95118
871 1 242.547 165.63 2.00073
872 1 241.32 166.335 2.00657
873 1 241.319 167.749 2.05615
874 1 242.545 168.456 2.10193
875 1 242.544 169.871 2.15059
876 1 241.316 170.577 2.15406
877 1 241.315 171.993 2.20042
878 1 242.542 172.7 2.24526
879 1 242.541 174.116 2.28902
880 1 241.313 174.823 2.28762
881 1 241.312 176.24 2.3269
882 1 242.539 176.948 2.36895
883 1 242.539 178.365 2.40364
884 1 241.31 179.073 2.39562
885 1 241.31 180.49 2.42398
886 1 242.538 181.199 2.46108
887 1 242.538 182.617 2.48242
888 1 241.309 183.325 2.46623
889 1 241.31 184.743 2.47952
890 1 242.538 185.452 2.50907
891 1 242.539 186.87 2.51394
892 1 241.311 187.58 2.48963
893 1 241.313 188.998 2.48665
894 1 242.542 189.705 2.50726
895 1 242.544 191.123 2.49672
896 1 241.317 191.833 2.46648
897 1 241.319 193.251 2.45024
898 1 242.548 193.958 2.46307
899 1 242.551 195.375 2.44115
900 1 241.324 196.085 2.40681
901 1 241.327 197.502 2.38068
902 1 242.556 198.207 2.38758
903 1 242.559 199.624 2.35745
904 1 241.333 200.334 2.31986
905 1 241.337 201.75 2.28663
906 1 242.565 202.455 2.28907
907 1 242.568 203.87 2.25322
908 1 241.343 204.58 2.21391
909 1 241.347 205.995 2.17717
910 1 242.575 206.699 2.177
911 1 242.579 208.114 2.14073
912 1 241.355 208.823 2.10257
913 1 241.358 210.238 2.06824
914 1 242.586 210.941 2.06899
915 1 242.589 212.355 2.03765
916 1 241.366 213.064 2.00196
917 1 241.37 214.478 1.97327
918 1 242.597 215.181 1.97724
919 1 242.6 216.595 1.95236
920 1 241.378 217.304 1.9188
921 1 241.382 218.717 1.89669
922 1 242.608 219.419 1.90473
923 1 242.612 220.833 1.88671
924 1 241.39 221.541 1.85511
925 1 241.394 222.954 1.83968
926 1 242.62 223.656 1.85209
927 1 242.624 225.069 1.8403
928 1 241.402 225.777 1.80954
929 1 241.407 227.19 1.79888
930 1 242.632 227.892 1.81516
931 1 242.636 229.304 1.80679
932 1 241.416 230.012 1.77509
933 1 241.42 231.424 1.7668
934 1 242.646 232.126 1.7859
935 1 242.651 233.538 1.77927
936 1 241.43 234.246 1.74655
937 1 241.436 235.658 1.74019
938 1 242.661 236.359 1.76155
939 1 242.667 237.771 1.75688
940 1 241.447 238.48 1.72377
941 1 241.454 239.892 1.71942
942 1 242.68 240.593 1.74282
943 1 242.687 242.006 1.73966
944 1 241.468 242.715 1.70605
945 1 241.477 244.127 1.7028
946 1 242.703 244.829 1.72739
947 1 242.715 246.242 1.72465
948 1 241.495 246.952 1.69175
949 1 241.51 248.365 1.69093
950 1 242.737 249.069 1.71556
951 1 242.756 250.482 1.7197
952 1 241.535 251.192 1.70119
953 1 241.557 252.606 1.72889
954 1 242.787 253.312 1.76435
955 1 242.814 254.728 1.83384
956 1 241.586 255.433 1.88647
957 1 241.609 256.848 2.02358
958 1 242.846 257.562 2.07911
959 1 242.859 258.996 2.15899
960 1 241.619 259.652 2.20429
961 1 239.138 7.01233 1.32796
962 1 240.373 7.67678 1.30223
963 1 240.368 9.10107 1.29333
964 1 239.138 9.80963 1.29303
965 1 239.125 11.2218 1.30941
966 1 240.353 11.9193 1.33244
967 1 240.335 13.331 1.34345
968 1 239.11 14.0372 1.34006
969 1 239.093 15.4481 1.34961
970 1 240.314 16.1523 1.37013
971 1 240.297 17.5633 1.38036
972 1 239.075 18.2697 1.37698
973 1 239.06 19.6801 1.38796
974 1 240.278 20.3874 1.40862
975 1 240.265 21.7978 1.42062
976 1 239.044 22.503 1.41747
977 1 239.032 23.913 1.4306
978 1 240.25 24.6211 1.45211
979 1 240.24 26.031 1.46695
980 1 239.019 26.7351 1.46373
981 1 239.009 28.1448 1.4793
982 1 240.227 28.8527 1.50286
983 1 240.219 30.2624 1.52054
984 1 238.998 30.9657 1.51581
985 1 238.99 32.3753 1.53411
986 1 240.209 33.0827 1.56111
987 1 240.202 34.4924 1.58168
988 1 238.98 35.195 1.57437
989 1 238.973 36.6047 1.59429
990 1 240.192 37.3115 1.62392
991 1 240.186 38.7213 1.64475
992 1 238.964 39.4236 1.634
993 1 238.959 40.8334 1.65398
994 1 240.178 41.5399 1.6854
995 1 240.173 42.9499 1.706
996 1 238.951 43.6521 1.69219
997 1 238.946 45.0621 1.7118
998 1 240.166 45.7684 1.74429
999 1 240.162 47.1787 1.76418
1000 1 238.939 47.881 1.74796
1001 1 238.935 49.2912 1.76748
1002 1 240.156 49.9975 1.80097
1003 1 240.152 51.4079 1.82099
1004 1 238.929 52.1105 1.80326
1005 1 238.926 53.521 1.82285
1006 1 240.147 54.2272 1.85721
1007 1 240.144 55.6379 1.87694
1008 1 238.92 56.3409 1.85776
1009 1 238.917 57.7515 1.87706
1010 1 240.139 58.4579 1.91238
1011 1 240.136 59.8688 1.93168