64
energy=-345.1083696 config_type=nep2xyz pbc="T T T" virial="-2.5314520451139537 -0.826376656764326 -2.4246640867548472 -0.826376656764326 -2.079510883292958 1.5040748400067543 -2.4246640867548472 1.5040748400067543 -2.7068090271159972" Lattice="10.958521696 0.0 0.0 0.0 10.958521696 0.0 0.0 0.0 10.958521696" Properties=species:S:1:pos:R:3:forces:R:3
Si 10.92141 10.89922 0.04866 0.926802 0.764477 -0.511551
Si 4.08094 6.92051 4.00978 0.712887 -0.908577 -0.40085
Si 9.47655 6.87075 4.07319 0.948663 -0.613988 -0.015881
Si 4.03104 1.33396 9.66962 0.481991 0.871387 -0.141836
Si 9.62938 1.38379 9.62841 0.144834 -0.768612 -0.897156
Si 4.13371 6.81725 9.53331 -0.713629 -0.239125 0.715934
Si 9.6076 6.89357 9.45044 -0.810252 0.191723 0.918397
Si 1.30367 1.39128 1.49417 0.090997 -0.425828 -0.491724
Si 6.86574 1.36507 1.39522 0.306009 0.791585 -0.084662
Si 1.22433 6.85652 1.33844 0.545298 -0.617836 -0.166616
Si 6.91169 6.89876 1.35327 -0.31114 -0.958575 -0.249466
Si 1.46569 1.36796 6.84324 0.065173 0.290856 0.107206
Si 6.74223 1.42034 6.94106 0.589778 -0.961568 -0.19746
Si 1.38769 6.83335 6.80677 -0.879735 -0.100444 -0.374586
Si 9.69286 1.39552 4.28204 -0.622993 0.107208 -0.866823
Si 6.80041 6.83947 6.86628 0.450796 -0.207973 -0.275839
Si 6.90852 4.06413 4.1648 0.486724 0.022325 -0.344944
Si 1.35331 9.5746 4.18578 -0.092124 -0.066633 -0.800706
Si 6.82576 9.69187 4.02142 0.407351 -0.57723 1.097581
Si 1.4089 4.05659 9.58775 -0.057291 0.982269 0.122196
Si 6.93909 4.11014 9.57663 -1.295841 -0.277116 0.470706
Si 1.42759 9.57538 9.54283 -0.188673 0.282337 0.79133
Si 6.78942 9.58899 9.66362 0.07334 0.271042 -0.780832
Si 4.18875 4.15207 1.41093 -0.198127 -0.966799 -0.323932
Si 9.59689 4.03771 1.34115 0.000161 0.973483 -0.387609
Si 4.07899 9.63364 1.38709 0.453266 -0.651946 -0.400861
Si 9.49362 9.68389 1.36236 0.191013 -0.867686 0.563226
Si 4.20668 4.12921 6.78707 -1.078865 0.002757 -0.152797
Si 9.52452 4.03253 6.99363 1.082969 0.35365 -0.859635
Si 1.38857 4.15478 4.05543 0.012067 -0.009941 0.439701
Si 4.07954 1.34777 4.0594 0.651477 -0.085693 0.509077
Si 8.2151 5.44007 8.27057 -0.126477 1.059627 -0.958476
Si 2.69406 5.47586 8.13927 0.875089 -0.518439 0.449602
Si 5.48277 0.07054 0.03309 -0.294689 -0.625466 0.167423
Si 10.86196 5.52228 10.81943 0.698394 -0.884949 0.795488
Si 5.51723 5.42897 0.00286 0.338095 0.853491 -0.340494
Si 0.04844 0.03101 5.57521 -0.018689 -0.939338 0.19134
Si 5.47074 0.01162 5.48462 0.11575 0.414366 -0.357127
Si 10.85986 5.42414 5.43101 0.184882 0.396594 0.574209
Si 5.50167 5.49119 5.36657 -0.193121 0.411017 0.420732
Si 10.9033 2.80808 2.81939 0.397545 -0.521453 -0.114416
Si 5.50279 2.72259 2.80904 0.140193 0.190136 -0.415404
Si 10.87858 8.20017 2.70834 -0.092522 0.879863 0.512837
Si 5.57714 8.24823 2.69071 -1.021615 0.319071 -0.043571
Si 0.11087 2.72828 8.22027 -0.666159 -0.485588 0.166731
Si 5.40621 2.7815 8.28313 0.146753 -0.089922 0.349568
Si 0.04427 8.2355 8.22177 0.218925 0.162136 -0.900281
Si 5.46164 8.22359 8.2358 0.226838 0.081976 -0.096748
Si 2.70425 2.75117 0.09192 0.214207 -0.119317 0.238474
Si 8.25504 2.75541 10.88982 -0.356096 -0.669111 0.872142
Si 2.68769 8.16958 0.06444 0.624626 0.288808 -0.738138
Si 8.19204 8.2579 10.93314 0.648137 -0.222309 -0.147693
Si 2.76908 2.71532 5.38009 -0.057005 0.649201 0.691448
Si 8.26017 2.65332 5.61774 -0.783899 0.475526 -0.234341
Si 2.76863 8.15318 5.42188 -0.529282 0.383673 0.374866
Si 8.19439 8.19736 5.43561 -0.733857 0.694239 0.391544
Si 2.7694 10.94453 2.77377 -1.070262 -0.147621 -0.021904
Si 8.2565 0.10865 2.83558 0.298266 0.054225 -0.362192
Si 2.74332 5.4651 2.62554 -0.508661 0.920264 0.467661
Si 8.25468 5.45401 2.6805 -0.556928 -0.289604 0.208951
Si 2.83066 0.00241 8.20079 -0.161437 -0.779955 -0.510608
Si 8.201 10.87149 8.1935 -0.447341 1.111105 0.886873
Si 4.17708 9.49557 6.72003 -0.485033 0.506474 1.006452
Si 9.54555 9.55481 6.8649 0.602447 -0.158247 -0.534536
64
energy=-344.90269399 config_type=nep2xyz pbc="T T T" virial="-2.063132513246957 -1.1888528203200044 0.7082536178317582 -1.1888528203200044 -3.192640437086341 -1.3910443735057416 0.7082536178317582 -1.3910443735057416 -3.4137402188808514" Lattice="10.958521696 0.0 0.0 0.0 10.958521696 0.0 0.0 0.0 10.958521696" Properties=species:S:1:pos:R:3:forces:R:3
Si 10.84207 10.91026 10.9425 0.708725 -0.009669 -0.16503
Si 4.12942 6.87852 4.21573 0.041432 -0.220668 -1.299835
Si 9.53762 6.97021 4.22437 -0.007167 -0.719532 -0.335723
Si 4.07615 1.43198 9.53245 0.203736 -1.130199 0.24575
Si 9.47893 1.28943 9.65639 0.061613 0.63413 -0.878615
Si 4.17137 6.90707 9.52229 -0.311074 -0.120538 0.017673
Si 9.58891 6.84292 9.75045 -0.076534 -0.205597 -0.916932
Si 1.36527 1.32249 1.20905 0.4388 -0.047755 0.318894
Si 6.82218 1.35409 1.36595 -0.536789 -0.219622 0.271018
Si 1.30059 6.80509 1.44772 0.576602 0.184234 -0.400115
Si 6.94298 6.82259 1.4538 -0.5931 0.590843 -0.274573
Si 1.4994 1.35662 6.85138 -0.470916 0.222652 -0.849992
Si 6.7745 1.36034 6.83354 0.037957 -0.11259 -0.278033
Si 1.44425 6.90919 6.94752 -0.499477 -0.521312 -1.215074
Si 9.70322 1.49011 4.03612 -0.01599 -1.107744 0.880908
Si 6.82535 6.82298 6.87562 0.412636 0.188599 0.344613
Si 6.90352 4.07058 4.10082 -0.647862 0.414471 0.156691
Si 1.40858 9.53309 3.99993 -0.249051 0.143509 1.020512
Si 6.92405 9.65238 4.24232 -0.219206 -0.315414 -0.509217
Si 1.38373 4.09667 9.52015 -0.721878 0.135635 -0.204576
Si 6.85658 4.09075 9.54458 -0.075568 0.349419 0.901611
Si 1.3172 9.51473 9.63177 0.193055 0.490366 -0.264132
Si 6.76951 9.55757 9.60125 0.328297 0.320516 -0.2488
Si 4.16536 4.27296 1.23748 -0.586562 -0.710502 0.881461
Si 9.59702 3.99749 1.40759 0.218751 0.760748 -0.069271
Si 4.11619 9.49787 1.40196 0.134231 0.078241 -0.252901
Si 9.4716 9.65885 1.34327 0.207775 -0.570109 1.215379
Si 4.19843 4.05308 6.72311 -0.73453 1.159231 0.556066
Si 9.58341 4.1044 6.88873 -0.054303 0.233695 0.049192
Si 1.27617 4.1685 4.16774 0.705445 0.096834 -0.312094
Si 4.0045 1.39103 3.89145 0.831554 -0.219322 0.541308
Si 8.21257 5.52669 8.29934 0.445465 -0.387484 -0.340714
Si 2.75141 5.5258 8.19335 1.022927 -1.15601 0.035506
Si 5.43291 10.92796 0.01644 -0.241804 0.417868 -0.140269
Si 10.94649 5.42144 0.02499 0.218982 -0.469644 0.291474
Si 5.57255 5.63174 10.9196 0.035433 -0.625225 -0.299779
Si 0.13435 10.87611 5.46498 -0.768328 0.682671 0.10234
Si 5.36885 10.94689 5.38397 -0.035491 0.874205 0.303909
Si 10.93868 5.58183 5.56323 -0.106607 -0.293327 0.171786
Si 5.50287 5.55426 5.46478 0.585865 -1.234746 -0.059878
Si 0.17314 2.7232 2.66215 -0.577074 0.231629 0.200227
Si 5.4803 2.79612 2.65886 -0.275137 0.194653 -0.237521
Si 10.93886 8.2252 2.80415 -0.999818 0.071667 -1.138848
Si 5.55613 8.22475 2.83644 0.071696 0.026267 -0.032076
Si 10.92481 2.61365 8.1875 0.124498 0.429218 0.418563
Si 5.43063 2.79512 8.22283 0.626107 -0.551957 -0.383431
Si 0.01764 8.08538 8.27536 -0.41491 0.714974 0.696805
Si 5.49872 8.26988 8.1384 -0.467158 -0.182204 0.11115
Si 2.75538 2.78836 10.86482 0.112605 0.158164 0.687729
Si 8.16019 2.70886 0.08394 0.2329 0.191728 -0.904738
Si 2.74214 8.16804 10.92432 -0.222072 -0.222427 0.754135
Si 8.164 8.22732 10.95104 0.036106 0.204224 0.51115
Si 2.82393 2.80075 5.31637 -0.93713 -0.553054 0.846663
Si 8.24641 2.71958 5.48033 0.068774 0.033345 0.189969
Si 2.69549 8.16784 5.41582 0.02781 0.771925 0.75351
Si 8.22276 8.27585 5.68618 -0.209516 -0.215471 -0.88385
Si 2.68002 10.8739 2.66132 0.289827 0.619003 -0.807839
Si 8.18333 0.12335 2.82104 0.518755 -0.481052 -0.274373
Si 2.7413 5.49447 2.82506 0.206055 -0.042124 -0.481067
Si 8.25075 5.45281 2.7638 0.803587 -0.096084 0.495003
Si 2.72346 10.89467 8.20846 0.176691 0.024031 0.537304
Si 8.15186 10.9091 8.1965 0.146819 0.087457 0.280274
Si 4.06358 9.56277 6.78471 -0.05611 0.114302 -0.084863
Si 9.66754 9.52063 6.96415 0.259647 0.890925 -0.244415
64
energy=-345.02663404 config_type=nep2xyz pbc="T T T" virial="-3.585680249057852 2.2271954838080523 0.6827989695004859 2.2271954838080523 -3.35812439963237 -4.672698048399762 0.6827989695004859 -4.672698048399762 -2.838443810645191" Lattice="10.958521696 0.0 0.0 0.0 10.958521696 0.0 0.0 0.0 10.958521696" Properties=species:S:1:pos:R:3:forces:R:3
Si 0.06 10.94818 10.9471 0.321684 0.364138 -0.457665
Si 4.29747 6.77941 4.12547 -0.791853 0.533209 -0.325108
Si 9.5637 6.82816 4.10438 -0.315255 0.271062 -0.054358
Si 4.04853 1.27525 9.64327 0.500412 0.980722 -0.199775
Si 9.67996 1.39802 9.57392 -1.012524 -0.376933 0.405204
Si 4.08289 6.94095 9.56939 0.094235 0.013802 0.852178
Si 9.59512 6.75931 9.52497 0.479199 0.232863 0.087515
Si 1.35279 1.36042 1.42632 -0.000551 0.620663 -0.398041
Si 6.77288 1.2339 1.41791 0.231184 0.625839 0.222477
Si 1.40634 6.91622 1.4304 -0.721264 -0.612351 0.580633
Si 6.87826 6.95692 1.23945 0.181109 -0.120708 0.924965
Si 1.49277 1.38383 6.8008 -1.188939 -0.388392 0.297886
Si 6.83278 1.41289 6.84077 0.125747 -0.2946 0.526087
Si 1.40854 6.77129 6.82041 -0.355289 1.021882 0.047217
Si 9.66802 1.32491 4.11101 -0.012839 0.56641 0.021025
Si 6.82138 6.93413 6.86613 0.554346 -0.952319 -0.300141
Si 6.86982 4.02434 4.08947 0.153093 0.188189 -0.557695
Si 1.25944 9.4913 4.08757 0.254555 0.609627 0.064926
Si 6.93594 9.64413 4.09135 -0.808637 -0.297499 0.20642
Si 1.38473 4.09303 9.60096 -0.548069 0.497269 0.517725
Si 6.92133 3.99257 9.61954 -1.155817 0.455638 -0.241951
Si 1.38698 9.53318 9.5388 -0.135222 0.127576 0.136237
Si 6.7733 9.52781 9.64314 0.348267 -0.386278 -0.605243
Si 4.16732 4.23082 1.42098 -0.321334 -0.608192 -0.932249
Si 9.47108 4.00545 1.39639 0.779429 1.038892 0.444069
Si 4.08147 9.68313 1.349 -0.68103 -0.473346 1.152098
Si 9.63205 9.65127 1.29964 -0.659819 -0.170867 0.359235
Si 4.07831 4.13126 6.9106 0.00372 0.775314 -0.222233
Si 9.59857 4.1592 6.77572 -0.588917 -0.717549 0.396657
Si 1.38404 4.21423 4.13213 -0.332228 -1.116273 0.401516
Si 4.17732 1.38854 4.18316 -0.955675 -0.309822 -0.84651
Si 8.15826 5.43905 8.21693 0.282242 0.079738 -0.291531
Si 2.72708 5.60999 8.32902 -0.148992 -1.584179 -0.710341
Si 5.45069 10.9037 0.01622 0.11218 0.301413 -0.455752
Si 10.88503 5.52917 0.14421 0.533419 -0.898673 -0.864524
Si 5.50548 5.56384 10.86941 0.233633 -0.594663 0.182245
Si 0.00811 10.90637 5.4981 0.336843 0.310293 0.367736
Si 5.53435 0.01841 5.47423 0.227086 -0.206924 0.030794
Si 10.92676 5.53413 5.47111 0.418231 -0.243729 -0.063139
Si 5.63832 5.38763 5.50234 -0.927835 0.274705 0.547338
Si 0.03327 2.80586 2.76673 -0.288818 -0.360313 0.009349
Si 5.42322 2.71952 2.70383 0.467335 0.088052 0.202116
Si 10.82052 8.24975 2.74352 0.688054 -0.447461 -0.53948
Si 5.51454 8.35725 2.71226 0.010264 -0.85008 -0.216337
Si 0.01819 2.73841 8.15279 0.400935 0.40606 -0.147416
Si 5.39168 2.72353 8.19993 0.490635 -0.341487 0.82429
Si 10.94434 8.18364 8.15113 0.012275 -0.077377 0.029344
Si 5.36959 8.19756 8.12851 0.456148 0.937427 0.465435
Si 2.75926 2.75549 0.06328 0.140074 -0.005947 0.022945
Si 8.1492 2.62745 0.11353 0.510729 -0.381629 -0.931854
Si 2.72668 8.24818 0.0835 0.274253 0.203029 -0.847903
Si 8.37646 8.21737 10.86734 -0.932395 0.228209 0.104087
Si 2.77925 2.75537 5.47464 0.034476 0.706007 -0.127863
Si 8.22127 2.68088 5.42451 0.591154 0.182884 0.3685
Si 2.67262 8.14949 5.3488 1.154839 -0.219477 0.619471
Si 8.2057 8.24056 5.43148 0.258853 -0.096637 0.648819
Si 2.61727 0.00364 2.8002 1.118223 -0.059516 0.324078
Si 8.25869 0.00725 2.78377 0.422181 0.079978 -0.844035
Si 2.75414 5.44843 2.80915 0.617249 1.303673 -0.446742
Si 8.20082 5.50029 2.73838 -0.626917 -0.258075 -0.399464
Si 2.77292 10.94611 8.19322 -0.175174 -0.453597 -0.076557
Si 8.12901 10.94946 8.31837 0.364433 0.485018 -0.411297
Si 4.09759 9.6023 6.7329 -0.562148 -0.261561 -0.009574
Si 9.51924 9.63709 6.87061 0.064816 -0.343124 0.134159
64
energy=-344.94192372 config_type=nep2xyz pbc="T T T" virial="-3.049415944362109 2.6482526579796173 -2.639767775202527 2.6482526579796173 -3.97311001752815 0.3172508348328694 -2.639767775202527 0.3172508348328694 -2.6047933019548477" Lattice="10.958521696 0.0 0.0 0.0 10.958521696 0.0 0.0 0.0 10.958521696" Properties=species:S:1:pos:R:3:forces:R:3
Si 0.04023 10.82884 10.90567 0.012935 0.48538 0.85118
Si 4.11589 6.85056 4.17132 -0.021547 0.011405 0.101241
Si 9.54112 6.98938 4.10565 -0.519902 -1.138953 0.688587
Si 4.07705 1.37952 9.60091 0.082723 0.033071 -0.266315
Si 9.60681 1.20909 9.63936 0.442116 1.316324 -0.403499
Si 4.11023 6.83746 9.51736 -0.259633 0.083009 0.41531
Si 9.60074 6.84966 9.57019 -0.1174 -0.490456 0.26046
Si 1.4223 1.29057 1.3173 -0.579689 -0.204302 0.298388
Si 6.78314 1.26839 1.35725 -0.726092 1.027207 -0.400438
Si 1.3325 6.77324 1.47543 0.803607 0.176631 -0.878557
Si 6.94889 6.85782 1.41449 -0.590338 -0.083578 0.119396
Si 1.24477 1.45 6.79852 0.953219 0.504556 -0.257074
Si 6.87548 1.45063 6.97931 0.312574 -0.060438 -0.009141
Si 1.37268 6.80201 6.87027 0.252159 -0.64469 -0.408611
Si 9.51972 1.4397 3.97657 0.280188 -0.258051 0.922718
Si 6.81713 6.85676 6.77689 0.003974 0.719344 0.341941
Si 6.8048 4.07016 4.00811 0.255396 0.077664 0.377041
Si 1.36838 9.57787 4.09184 -0.106651 0.06427 -0.238255
Si 6.75758 9.68995 4.23306 0.552903 -0.503288 -0.470687
Si 1.38097 4.03575 9.46509 0.157913 0.199583 1.380572
Si 6.95302 4.2143 9.71591 -0.600737 -0.331693 -0.512841
Si 1.39541 9.55339 9.55734 0.8342 -0.333051 -0.023083
Si 6.97864 9.57636 9.59809 -0.80668 -0.010888 -0.257735
Si 4.01389 4.16228 1.31453 0.653863 -0.200839 0.842627
Si 9.6246 4.08605 1.28277 -0.01671 -0.71006 0.474827
Si 4.16727 9.47437 1.40725 -0.177103 -0.016833 -0.029674
Si 9.57529 9.63269 1.39926 0.0848 -0.367934 0.659186
Si 4.22178 4.16585 6.87191 -0.572976 -0.65665 -0.573864
Si 9.53546 4.10614 6.80695 -0.222707 -0.133163 0.399735
Si 1.25641 4.23975 4.09147 0.346148 -1.111874 0.096797
Si 4.1352 1.23864 4.145 -1.030806 1.496425 -0.092592
Si 8.16614 5.53354 8.11729 0.606834 -0.245937 0.941455
Si 2.78762 5.38444 8.19516 -0.1755 0.840354 -0.11904
Si 5.4153 10.85244 10.92932 0.549178 0.285104 -0.263111
Si 0.06533 5.43891 10.95537 -0.227159 0.096644 -0.778139
Si 5.42797 5.59029 0.03572 0.715496 -0.428866 0.140142
Si 0.0217 0.08175 5.38403 -0.433539 0.041229 -0.624551
Si 5.53755 0.11715 5.58935 -0.609233 -0.321547 0.442273
Si 10.84051 5.49562 5.48588 0.258073 0.840846 -0.025558
Si 5.53856 5.44721 5.45833 -0.223521 0.253556 -0.481552
Si 0.06969 2.68269 2.68077 -0.33803 0.698134 -0.178732
Si 5.36501 2.70033 2.74183 0.228041 -0.060912 -0.759192
Si 0.00964 8.13903 2.77544 -0.193913 1.457182 -0.539502
Si 5.55459 8.18605 2.8491 -0.126963 0.133789 -0.294516
Si 10.89775 2.7459 8.22189 -0.783651 -0.498888 -0.039053
Si 5.50777 2.87878 8.31445 0.25121 -0.665774 0.516208
Si 0.10257 8.09735 8.26883 -0.784068 1.212198 -0.503247
Si 5.49619 8.2324 8.24421 -0.109903 0.5258 -0.673015
Si 2.71075 2.71539 0.06362 0.010925 0.227564 -1.266471
Si 8.23363 2.59709 10.93928 -0.148004 0.604831 0.469992
Si 2.77291 8.14676 0.03452 -0.499548 0.0389 -0.050642
Si 8.2779 8.22917 0.03775 0.117377 -0.169879 -0.179021
Si 2.70342 2.90215 5.45389 0.288973 -1.057727 0.125776
Si 8.16225 2.74707 5.45601 0.106119 -0.042252 -0.207643
Si 2.66624 8.22427 5.48985 0.622713 0.031899 0.129591
Si 8.18603 8.33671 5.5178 0.356565 -0.09951 -0.011658
Si 2.75991 10.89728 2.68808 0.336804 -0.283285 0.37162
Si 8.07162 0.05081 2.78456 0.981685 -0.826037 -0.207168
Si 2.75232 5.46813 2.8336 -0.004949 0.326572 -0.564853
Si 8.29756 5.4412 2.75271 -0.123484 0.075795 -0.221499
Si 2.63795 0.09074 8.12619 0.259034 -0.114062 0.676927
Si 8.35945 10.92079 8.1916 -0.906672 -0.069581 -0.280555
Si 4.03645 9.68755 6.81093 0.553062 -0.662836 0.447786
Si 9.74605 9.65656 6.78015 -0.233701 -1.081437 0.599308
64
energy=-345.01566272 config_type=nep2xyz pbc="T T T" virial="-3.1048182041215258 2.409074244053087 2.5966451860643596 2.409074244053087 -3.8665684739641186 0.33937066960412343 2.5966451860643596 0.33937066960412343 -3.6109952623385815" Lattice="10.958521696 0.0 0.0 0.0 10.958521696 0.0 0.0 0.0 10.958521696" Properties=species:S:1:pos:R:3:forces:R:3
Si 0.10115 10.85571 0.01447 -0.460665 0.822631 -0.461008
Si 4.02626 6.84561 4.09898 0.891581 -0.591154 -0.072364
Si 9.62578 6.85697 3.98122 -0.710598 0.125004 0.769622
Si 4.05427 1.37378 9.62865 -0.135485 -0.349647 -0.088445
Si 9.66448 1.32434 9.54699 0.009691 -0.323689 0.740576
Si 4.15507 6.82761 9.40582 -0.082643 -0.430111 1.143387
Si 9.589 6.83331 9.62406 -0.651867 0.031826 -0.442121
Si 1.3151 1.35345 1.42348 0.385182 -0.585036 0.263382
Si 6.70801 1.51265 1.3988 0.656438 -0.373622 -1.01595
Si 1.33079 6.855 1.31954 0.091798 0.318959 0.464924
Si 6.87232 6.89681 1.25833 -0.236723 0.374117 0.199771
Si 1.38041 1.34027 6.84094 0.296165 0.092239 0.67028
Si 6.91029 1.38986 6.89609 -0.36324 -0.246137 -0.017754
Si 1.44128 6.83757 6.75402 -0.006733 0.087248 0.979249
Si 9.60197 1.31582 4.04618 0.430368 1.305942 0.723733
Si 6.89081 6.8217 6.81512 0.292239 0.408552 -0.217752
Si 6.96509 4.18454 4.20311 -0.965715 -0.244138 -0.813605
Si 1.42042 9.5734 4.06824 -0.214193 0.297314 0.475359
Si 6.80378 9.61401 4.09941 0.084996 0.200498 0.31147
Si 1.33085 4.09442 9.6314 0.790923 -0.314053 -0.022643
Si 6.91128 4.05586 9.58147 -0.806455 0.429933 -0.578875
Si 1.39505 9.47709 9.55049 0.148703 -0.527551 0.500067
Si 6.84508 9.52084 9.69061 -0.249843 0.723878 -0.465884
Si 4.09489 4.1149 1.37829 0.118619 0.508499 0.292381
Si 9.47847 4.1582 1.35892 0.383853 0.07088 -0.378527
Si 4.17023 9.48861 1.48634 -0.209172 0.529521 -1.119979
Si 9.51511 9.82516 1.42737 0.07622 -0.416967 0.58962
Si 4.13731 4.06493 6.79038 -0.295761 0.405501 0.365819
Si 9.65791 4.08239 6.82346 -0.066863 0.551098 0.112631
Si 1.2259 4.09285 4.09543 0.373307 0.493902 0.740538
Si 4.05191 1.40498 4.20278 0.113194 -0.018191 -0.324415
Si 8.22153 5.43843 8.13221 0.346513 -0.024937 0.883425
Si 2.7463 5.4051 8.19246 -0.199989 0.033292 -0.354321
Si 5.42044 10.9541 0.02586 0.198858 -0.134419 0.429407
Si 10.94309 5.46588 10.92321 -0.320286 0.076947 0.65252
Si 5.51987 5.53484 10.88223 -0.412624 -0.84399 -0.062385
Si 0.07978 0.02422 5.42719 -0.548352 -0.493485 0.073182
Si 5.45139 0.03123 5.52775 0.064361 -0.329235 0.369314
Si 10.94559 5.58993 5.50232 -0.335683 -0.965644 -0.809144
Si 5.51732 5.48529 5.51066 -0.712106 0.187111 -0.484116
Si 10.90876 2.82429 2.67193 -0.63291 -0.921113 0.1528
Si 5.47094 2.79029 2.84012 -0.432588 0.723278 0.343156
Si 10.90041 8.346 2.7639 0.339924 -0.30792 -1.205467
Si 5.54439 8.14927 2.75464 -0.217837 -0.161232 0.271725
Si 0.01942 2.74739 8.23671 0.183037 -0.35492 -0.383012
Si 5.3925 2.71275 8.21354 0.939255 -0.060721 0.308693
Si 10.93039 8.08822 8.18275 0.503464 0.701983 -0.22715
Si 5.58808 8.15654 8.20792 -0.112377 0.540315 -0.148361
Si 2.68677 2.66824 0.12382 0.289709 0.705756 -0.867599
Si 8.27212 2.7146 10.891 -0.281834 -0.395509 0.6522
Si 2.89188 8.11505 10.95328 -0.789871 0.390458 -0.168585
Si 8.30995 8.35426 0.06946 0.123851 -0.926461 -0.161297
Si 2.63429 2.81601 5.51002 0.23765 -0.532974 -0.450115
Si 8.28001 2.77061 5.46964 0.36062 -0.79011 0.218348
Si 2.76688 8.25119 5.44534 0.019675 -0.016786 0.348527
Si 8.22988 8.2282 5.40834 0.238621 -0.007211 0.020877
Si 2.80577 10.9025 2.76652 -0.316864 0.788332 -0.126326
Si 8.04461 0.24065 2.81047 0.113792 -1.491867 -0.752927
Si 2.60509 5.4357 2.79057 0.584777 0.335466 -0.752515
Si 8.10402 5.56701 2.67745 0.900857 -0.454791 0.338603
Si 2.77415 10.85078 8.25676 -0.574237 0.922931 -0.043396
Si 8.22118 10.89533 8.31607 0.126447 0.053041 -0.858479
Si 4.10262 9.50404 6.93916 0.836201 0.40151 -0.783418
Si 9.63155 9.58055 6.809 -0.207377 -0.004344 0.252353
64
energy=-344.64208608 config_type=nep2xyz pbc="T T T" virial="-3.052389349556017 -0.6842938859239424 -2.621081319909321 -0.6842938859239424 -3.50419087632647 0.39163524763958196 -2.621081319909321 0.39163524763958196 -2.1226581139106324" Lattice="10.958521696 0.0 0.0 0.0 10.958521696 0.0 0.0 0.0 10.958521696" Properties=species:S:1:pos:R:3:forces:R:3
Si 10.90366 10.89193 0.13249 0.721832 -0.269752 0.383168
Si 4.1986 6.73251 4.12767 0.599231 1.181455 -0.327014
Si 9.60468 6.79437 4.18648 -0.108809 -0.221124 0.025591
Si 4.0694 1.48731 9.5047 0.820055 -0.814777 0.929681
Si 9.74941 1.30657 9.64779 -1.17551 0.406489 -0.47705
Si 4.07872 6.73387 9.58687 0.151417 -0.065499 -0.159264
Si 9.67413 6.94878 9.56281 -0.607849 -0.495736 0.687732
Si 1.44159 1.42413 1.41723 -0.542266 -0.555702 -0.423976
Si 6.79211 1.40682 1.33969 0.285482 0.042112 0.03751
Si 1.39436 6.94561 1.32973 0.361626 -0.793043 -0.052476
Si 6.9168 6.79923 1.39604 -0.318051 -0.072307 -0.007785
Si 1.30663 1.39848 6.88163 -0.296671 0.521144 -0.553883
Si 6.94558 1.41519 6.77682 -0.692216 -0.096652 0.535315
Si 1.40082 6.81037 6.86672 -0.288265 -0.140151 0.27769
Si 9.61623 1.29102 4.02523 0.422489 0.091661 0.176754
Si 6.88022 6.87304 6.9039 0.472282 -0.203076 -0.401675
Si 6.88148 4.06355 4.13529 -0.671083 0.462407 -0.029714
Si 1.49332 9.49629 4.1045 -0.53483 0.748841 0.056786
Si 6.71223 9.75993 4.08693 0.360294 -0.86975 -0.140166
Si 1.29285 4.08484 9.64511 -0.003269 0.228612 -0.131436
Si 6.98944 4.10142 9.56945 -1.207496 -0.411325 0.62357
Si 1.37603 9.67113 9.58516 -0.489691 -0.189309 -0.174407
Si 6.75659 9.54506 9.4993 0.257439 0.482003 -0.33954
Si 4.05782 4.21228 1.40059 0.383845 -1.295968 -0.401248
Si 9.68238 4.1906 1.40792 -0.559641 -1.132642 -0.264058
Si 4.11041 9.50807 1.26225 0.061243 0.926835 0.404993
Si 9.39615 9.43947 1.40192 1.474439 0.290503 0.095985
Si 4.09055 4.18449 6.87613 -0.013938 -0.807415 -0.272834
Si 9.48649 4.11007 6.92114 0.784817 -0.600355 -1.140023
Si 1.34106 4.2252 4.15809 0.491356 -1.023503 -0.531609
Si 4.13698 1.4376 4.07917 -0.388956 -0.101147 1.19282
Si 8.34313 5.47772 8.32676 -0.974421 1.11336 -0.592726
Si 2.62804 5.35822 8.26959 0.678473 0.932016 -0.120893
Si 5.49356 10.93548 10.90971 -0.644214 0.46166 -0.194666
Si 0.00396 5.52109 10.92874 0.233219 0.570718 0.617595
Si 5.50159 5.42751 0.02514 0.506939 0.264603 -0.203526
Si 10.93363 10.93316 5.52536 0.752571 -0.264018 -0.789512
Si 5.39218 0.04614 5.57739 -0.155203 -0.080819 -0.046231
Si 0.02016 5.41549 5.58053 -0.857888 0.683194 0.282639
Si 5.54556 5.483 5.52553 0.266402 -0.412659 0.249914
Si 0.04812 2.74173 2.78257 0.134168 0.514138 -0.162419
Si 5.46377 2.79449 2.78731 0.034321 0.117211 -0.9733
Si 0.02016 8.09954 2.79878 -0.488345 1.028483 -0.305755
Si 5.48677 8.24218 2.67302 0.114313 -0.381255 0.543386
Si 10.94471 2.82815 8.24017 -0.370495 -1.039682 -0.06948
Si 5.47163 2.77608 8.2094 1.072873 0.448753 -0.625011
Si 10.9431 8.20897 8.161 0.878664 1.001096 -0.284875
Si 5.37334 8.13428 8.16979 -0.182874 0.520282 0.246062
Si 2.70425 2.77127 10.89373 0.400607 0.101513 1.046802
Si 8.28498 2.70074 0.00668 0.380618 0.257461 0.189307
Si 2.76996 8.22719 10.82925 -0.424608 -0.074097 0.269743
Si 8.11099 8.21693 10.86372 0.287745 -0.558696 0.157064
Si 2.66553 2.77527 5.50917 0.607619 0.091992 -0.32948
Si 8.2859 2.72134 5.31219 0.183845 -0.254778 1.347606
Si 2.82033 8.05026 5.4829 -0.535563 0.635913 -0.246703
Si 8.13146 8.25246 5.34153 0.015491 0.143276 0.658638
Si 2.86062 0.07443 2.70804 -0.429796 -1.255798 -0.07144
Si 8.19375 0.00967 2.66845 -0.663119 0.126122 0.27355
Si 2.79364 5.53655 2.77879 -1.29987 0.177044 -0.347149
Si 8.25836 5.37626 2.82892 0.126693 1.03338 -0.558273
Si 2.70299 0.15791 8.20977 -0.36691 -1.02568 0.272544
Si 8.25765 0.00942 8.20537 -0.001525 -0.111853 0.189835
Si 3.892 9.5605 6.90217 1.365629 0.251431 -0.240408
Si 9.55017 9.56149 6.78103 -0.394664 -0.237136 0.217726
64
energy=-344.84037544 config_type=nep2xyz pbc="T T T" virial="-2.5461137254209305 0.9283513127929629 1.5585653650243925 0.9283513127929629 -3.350411616546515 -1.0973672207350702 1.5585653650243925 -1.0973672207350702 -2.678397401243822" Lattice="10.958521696 0.0 0.0 0.0 10.958521696 0.0 0.0 0.0 10.958521696" Properties=species:S:1:pos:R:3:forces:R:3
Si 0.06254 10.92029 10.912 0.327713 -0.119354 0.149791
Si 4.15008 6.89267 4.19909 -0.721337 -0.043134 -0.828181
Si 9.43551 6.82822 4.15705 -0.437644 0.712224 -0.79892
Si 4.15363 1.42486 9.5663 0.13946 -0.83 -0.127346
Si 9.63537 1.26514 9.57767 -1.206529 0.251273 0.656359
Si 4.06541 6.86287 9.57012 0.275291 -0.402681 -0.238294
Si 9.67767 6.76277 9.62715 0.165631 1.205443 0.61888
Si 1.33865 1.46351 1.28355 0.031647 0.142551 -0.356638
Si 6.93381 1.37971 1.47209 -0.859405 -0.140189 -0.424675
Si 1.3958 6.86308 1.43634 -0.107431 0.085851 -0.001326
Si 6.84656 6.78132 1.43333 0.036298 -0.041549 -0.252075
Si 1.37922 1.28467 6.84447 0.192819 0.168886 0.226792
Si 6.75266 1.46558 6.85687 0.383174 -0.662426 0.367284
Si 1.35098 6.92694 6.74772 0.092765 -0.008415 0.025682
Si 9.52847 1.42011 4.19016 0.356834 -0.710527 -0.118323
Si 6.82157 6.71205 6.91482 0.167608 1.307165 0.306818
Si 6.87495 4.05714 4.16665 -0.832136 -0.288138 0.056801
Si 1.27182 9.59438 3.97495 0.729362 0.838515 -0.402776
Si 6.89612 9.57258 4.06214 -0.248143 -0.028342 -0.190978
Si 1.28654 4.23738 9.4554 0.564939 -1.30786 1.27687
Si 6.8494 4.11313 9.66649 -0.300426 0.218378 -0.74476
Si 1.4482 9.50413 9.594 0.129406 0.413648 -0.019926
Si 6.85037 9.48899 9.58139 0.244273 0.362405 0.947911
Si 4.02706 4.08931 1.34328 0.456792 0.228212 0.13549
Si 9.65104 4.07927 1.39769 -0.603497 -0.167001 -0.094283
Si 4.18346 9.56446 1.39169 -0.494517 0.986844 -0.664833
Si 9.64495 9.57826 1.30537 0.038193 0.293322 0.472119
Si 4.01697 4.18262 6.7894 0.503239 0.294334 0.086199
Si 9.71634 4.12513 6.90779 -0.656101 0.355839 0.032748
Si 1.35984 4.07238 4.07017 0.155946 0.562884 0.913784
Si 4.15429 1.46579 4.09706 -0.536727 -1.106839 -0.29513
Si 8.27833 5.55918 8.29368 -0.131694 -1.71053 -0.160898
Si 2.67325 5.50772 8.1878 0.247771 0.874542 -0.868631
Si 5.59182 0.07279 0.01699 -0.469458 -0.715428 -0.146114
Si 0.0985 5.47186 0.07671 -0.555116 -0.128025 -0.138931
Si 5.3982 5.49602 0.01918 0.539092 -0.155906 -0.015508
Si 10.95076 10.86867 5.4542 -0.67572 0.436756 0.403264
Si 5.55323 0.05293 5.36406 -0.160148 -0.012117 0.386274
Si 10.86792 5.59767 5.3585 1.418861 -1.472789 1.165958
Si 5.52764 5.52526 5.47682 -0.60624 -1.024816 -0.073717
Si 0.00992 2.71501 2.81255 -0.433947 -0.258801 -0.598115
Si 5.44443 2.73148 2.71635 0.673308 0.794309 -0.082482
Si 10.84509 8.16528 2.75147 0.187397 -0.124248 -0.108242
Si 5.46682 8.17924 2.72315 0.459248 0.111716 0.5999
Si 10.95826 2.65089 8.33092 0.464241 0.434958 -1.441074
Si 5.36162 2.85649 8.15755 0.797405 0.009932 0.565729
Si 0.03452 8.22057 8.23634 -0.39435 -0.340218 -0.082618
Si 5.46349 8.20799 8.20111 -0.265542 -0.15194 -0.46259
Si 2.77481 2.78512 10.81828 -1.148194 0.42913 0.215108
Si 8.17085 2.66493 0.02225 1.283411 0.50521 -0.171717
Si 2.79097 8.15161 0.03266 -0.239099 0.702095 0.383789
Si 8.30032 8.15324 0.10727 -0.731835 -0.333262 -1.127293
Si 2.80033 2.71459 5.48337 -1.2536 0.198567 0.060608
Si 8.22048 2.79233 5.62271 0.259719 -0.01295 -0.286275
Si 2.68482 8.37084 5.36118 0.402617 -0.661693 0.593855
Si 8.08955 8.18444 5.54875 0.412465 0.011013 0.07876
Si 2.74287 0.17758 2.58446 0.213054 -1.352099 1.012201
Si 8.28438 10.93904 2.68868 0.390089 -0.082602 0.863645
Si 2.72045 5.46252 2.7646 0.570991 0.167076 0.377925
Si 8.17375 5.35898 2.81956 0.534959 0.55378 -0.889881
Si 2.82854 10.88834 8.21203 -0.264626 0.52236 0.147261
Si 8.12739 10.95766 8.28 0.25034 -0.028849 -0.90253
Si 4.16276 9.64685 6.7381 0.110928 -0.319581 0.130315
Si 9.51733 9.52539 6.90225 0.126178 0.563088 -0.14304
64
energy=-344.7506481 config_type=nep2xyz pbc="T T T" virial="-2.8899527166424184 -1.356727006378263 3.2377836275441254 -1.356727006378263 -3.459630867550364 1.0421045960261963 3.2377836275441254 1.0421045960261963 -3.884080352067466" Lattice="10.958521696 0.0 0.0 0.0 10.958521696 0.0 0.0 0.0 10.958521696" Properties=species:S:1:pos:R:3:forces:R:3
Si 10.92344 10.94467 10.84232 0.539775 -0.222727 0.215409
Si 4.0456 6.7411 4.17795 -0.628773 1.817474 -0.715755
Si 9.63115 6.97709 4.02755 -0.056904 0.196332 -0.16763
Si 4.0709 1.42576 9.57392 0.449145 0.206869 0.065298
Si 9.61391 1.38419 9.59356 -0.018565 1.01097 -0.028871
Si 4.18856 6.88763 9.70152 0.430312 -0.115874 -0.728412
Si 9.58758 6.746 9.67063 -0.556068 0.722494 -0.175356
Si 1.23512 1.42927 1.24244 0.739445 -0.063072 0.236692
Si 6.95079 1.30383 1.26145 -0.067472 0.598196 1.112588
Si 1.44599 6.68539 1.33726 0.681422 0.362509 0.742724
Si 6.81623 6.90491 1.47893 -0.710595 -0.106947 0.000931
Si 1.29768 1.36765 6.81315 1.052359 -0.092068 0.281884
Si 6.94255 1.3872 6.86824 -0.504693 -0.588394 0.38
Si 1.33526 6.86268 6.87651 0.196304 -0.327824 -0.625141
Si 9.50789 1.34238 4.00807 0.564696 0.21563 0.435129
Si 6.79142 6.79068 6.83793 0.766774 -0.071311 -0.356906
Si 6.84725 4.1846 4.07478 0.527321 -0.765575 -0.565894
Si 1.35307 9.73855 4.03298 -0.399612 -0.363617 0.296902
Si 6.91991 9.58979 4.07644 -1.002024 0.808282 -0.120587
Si 1.36657 4.17234 9.52137 0.184644 -0.28728 0.396176
Si 6.9057 4.04142 9.63923 -0.222398 0.594486 0.247041
Si 1.32734 9.55761 9.52207 0.448899 -0.061408 -0.357618
Si 6.82309 9.6267 9.61966 0.74812 -0.848935 0.218556
Si 4.16464 4.07261 1.49473 -0.094133 -0.311832 -0.377324
Si 9.62826 4.11235 1.52972 0.196487 0.518239 -1.01056
Si 4.01998 9.67004 1.33199 0.316962 0.058848 0.036931
Si 9.72598 9.48952 1.24356 -0.621313 0.463682 0.602081
Si 4.20866 4.1178 6.89869 -0.981608 0.232107 -0.572542
Si 9.48132 4.10769 6.81025 0.317817 -0.301604 0.125268
Si 1.24739 4.0545 4.30438 0.102413 0.093017 -0.678253
Si 4.08508 1.34563 4.12169 0.032856 -0.039373 0.084023
Si 8.19724 5.45227 8.27892 -0.195297 0.020473 -0.407608
Si 2.80469 5.54784 8.26228 0.150806 0.02498 -0.325643
Si 5.51863 0.04259 10.92788 -1.173485 -0.050631 -0.103533
Si 0.00686 5.43638 0.03057 -0.066543 -0.556894 -0.00314
Si 5.56418 5.43153 0.11005 -0.409164 0.218798 -0.279699
Si 10.85446 0.07518 5.49638 0.08314 -0.698027 -0.573773
Si 5.49599 0.03485 5.53387 0.167059 -0.652758 -0.35371
Si 10.7803 5.5682 5.4648 0.944136 -0.364381 0.606042
Si 5.44692 5.4534 5.3852 0.392699 -0.091955 1.379766
Si 0.01009 2.71657 2.7532 0.028835 -0.117853 0.74789
Si 5.50077 2.62416 2.78626 0.788501 0.345794 -0.529184
Si 0.16164 8.22062 2.6036 -0.10797 -0.158492 0.698769
Si 5.36968 8.33622 2.7725 0.014245 -0.864032 0.273285
Si 0.02241 2.7589 8.17578 -0.490175 0.259612 0.036139
Si 5.56548 2.7825 8.19333 -0.223806 -0.788195 0.617968