-2.378224487304687500e+02
-2.412700653076171875e+02
-2.362133636474609375e+02
-2.407957611083984375e+02
-2.410064086914062500e+02
-2.381469879150390625e+02
-2.408863220214843750e+02
-2.365697631835937500e+02
-2.408529205322265625e+02
-2.360800018310546875e+02
-2.382610168457031250e+02
-2.405964050292968750e+02
-2.386334381103515625e+02
-2.364811859130859375e+02
-2.394257049560546875e+02
-2.362207031250000000e+02
-2.357228698730468750e+02
-2.349361267089843750e+02
-2.412267913818359375e+02
-2.409516448974609375e+02
-2.381645202636718750e+02
-2.420770416259765625e+02
-2.408723602294921875e+02
-2.354127807617187500e+02
-2.372406616210937500e+02
-2.409670257568359375e+02
-2.392411956787109375e+02
-2.365969085693359375e+02
-2.408577728271484375e+02
-2.390770721435546875e+02
-2.387078399658203125e+02
-2.408244323730468750e+02
-2.405204467773437500e+02
-2.369144744873046875e+02
-2.387548980712890625e+02
-2.365576324462890625e+02
-2.406417694091796875e+02
-2.410398712158203125e+02
-2.411013031005859375e+02
-2.410198669433593750e+02
-2.391230010986328125e+02
-2.343834991455078125e+02
-2.364722442626953125e+02
-2.411861724853515625e+02
-2.370924224853515625e+02
-2.391832427978515625e+02
-2.411157531738281250e+02
-2.348376159667968750e+02
-2.410161132812500000e+02
-2.407932891845703125e+02
-2.337594451904296875e+02
-2.405775909423828125e+02
-2.416265716552734375e+02
-2.354822082519531250e+02
-2.371250762939453125e+02
-2.410795593261718750e+02
-2.391972198486328125e+02
-2.408535003662109375e+02
-2.420775146484375000e+02
-2.356462097167968750e+02
-2.344570159912109375e+02
-2.354173431396484375e+02
-2.412320709228515625e+02
-2.372530364990234375e+02
-2.359663238525390625e+02
-2.413786773681640625e+02
-2.410435028076171875e+02
-2.411179351806640625e+02
-2.409683532714843750e+02
-2.382693176269531250e+02
-2.327920532226562500e+02
-2.361556091308593750e+02
-2.412416687011718750e+02
-2.355487518310546875e+02
-2.375657196044921875e+02
-2.388204498291015625e+02
-2.386830291748046875e+02
-2.358431396484375000e+02
-2.363233795166015625e+02
-2.342319183349609375e+02
-2.364426727294921875e+02
-2.392593688964843750e+02
-2.356400909423828125e+02
-2.407262420654296875e+02
-2.409634246826171875e+02
-2.410187377929687500e+02
-2.409660491943359375e+02
-2.352026824951171875e+02
-2.354736328125000000e+02
-2.410628662109375000e+02
-2.363041839599609375e+02
-2.364193267822265625e+02
-2.408249664306640625e+02
-2.420753631591796875e+02
-2.420766906738281250e+02
-2.407546234130859375e+02
-2.345251770019531250e+02
-2.409757843017578125e+02
-2.343762969970703125e+02
-2.374985198974609375e+02
-2.405553131103515625e+02
-2.408432617187500000e+02
-2.408287963867187500e+02
-2.382138824462890625e+02
-2.420770874023437500e+02
-2.408888854980468750e+02
-2.407630615234375000e+02
-2.363637542724609375e+02
-2.407391357421875000e+02
-2.371071624755859375e+02
-2.386177520751953125e+02
-2.413092498779296875e+02
-2.365010833740234375e+02
-2.408122406005859375e+02
-2.365627136230468750e+02
-2.360913238525390625e+02
-2.404715728759765625e+02
-2.387747039794921875e+02
-2.394646301269531250e+02
-2.409768066406250000e+02
-2.420629272460937500e+02
-2.407223968505859375e+02
-2.410664520263671875e+02
-2.410749969482421875e+02
-2.383519439697265625e+02
-2.410055084228515625e+02
-2.384500274658203125e+02
-2.411329956054687500e+02
-2.395954437255859375e+02
-2.317922821044921875e+02
-2.358916320800781250e+02
-2.372420806884765625e+02
-2.382061920166015625e+02
-2.370798034667968750e+02
-2.406302490234375000e+02
-2.420671539306640625e+02
-2.393510437011718750e+02
-2.371354064941406250e+02
-2.358549346923828125e+02
-2.409548187255859375e+02
-2.364650421142578125e+02
-2.409475555419921875e+02
-2.395727539062500000e+02
-2.350747222900390625e+02
-2.420658111572265625e+02
-2.388471527099609375e+02
-2.409824523925781250e+02
-2.364074554443359375e+02
-2.360583496093750000e+02
-2.420647583007812500e+02
-2.382897644042968750e+02
-2.408555755615234375e+02
-2.413206176757812500e+02
-2.410865173339843750e+02
-2.393742828369140625e+02
-2.409796295166015625e+02
-2.350492248535156250e+02
-2.412380981445312500e+02
-2.409996490478515625e+02
-2.420711669921875000e+02
-2.410109405517578125e+02
-2.390432434082031250e+02
-2.354273986816406250e+02
-2.389144287109375000e+02
-2.405853424072265625e+02
-2.362556610107421875e+02
-2.389213867187500000e+02
-2.409432373046875000e+02
-2.411648864746093750e+02
-2.420757904052734375e+02
-2.409257965087890625e+02
-2.411241302490234375e+02
-2.381758422851562500e+02
-2.368730010986328125e+02
-2.373024139404296875e+02
-2.420195007324218750e+02
-2.353257598876953125e+02
-2.381062469482421875e+02
-2.408410644531250000e+02
-2.329487152099609375e+02
-2.408666381835937500e+02
-2.377286987304687500e+02
-2.362107696533203125e+02
-2.408315582275390625e+02
-2.420733489990234375e+02
-2.410193023681640625e+02
-2.390010223388671875e+02
-2.407067108154296875e+02
-2.355852050781250000e+02
-2.381919097900390625e+02
-2.410362243652343750e+02
-2.359707794189453125e+02
-2.412074737548828125e+02
-2.407597351074218750e+02
-2.371997833251953125e+02
-2.382610168457031250e+02
-2.351708068847656250e+02
-2.362769470214843750e+02
-2.387643432617187500e+02
-2.385759582519531250e+02
-2.373514556884765625e+02
-2.420694732666015625e+02
-2.364943389892578125e+02
-2.351855468750000000e+02
-2.420495910644531250e+02
-2.411416168212890625e+02
-2.357889251708984375e+02
-2.407457122802734375e+02
-2.404554443359375000e+02
-2.358072509765625000e+02
-2.409760131835937500e+02
-2.409096221923828125e+02
-2.410809020996093750e+02
-2.342586822509765625e+02
-2.411406402587890625e+02
-2.351444702148437500e+02
-2.347923736572265625e+02
-2.360711212158203125e+02
-2.376626434326171875e+02
-2.361431579589843750e+02
-2.385439300537109375e+02
-2.411005706787109375e+02
-2.357771759033203125e+02
-2.368289337158203125e+02
-2.409714813232421875e+02
-2.411947174072265625e+02
-2.380548248291015625e+02
-2.408950958251953125e+02
-2.400216217041015625e+02
-2.416265716552734375e+02
-2.393154144287109375e+02
-2.352428894042968750e+02
-2.386344604492187500e+02
-2.394610595703125000e+02
-2.412083892822265625e+02
-2.409790649414062500e+02
-2.420662231445312500e+02
-2.408372955322265625e+02
-2.381002044677734375e+02
-2.411286315917968750e+02
-2.411436004638671875e+02
-2.387963867187500000e+02
-2.384889221191406250e+02
-2.410443115234375000e+02
-2.420547943115234375e+02
-2.366691436767578125e+02
-2.377140655517578125e+02
-2.407165069580078125e+02
-2.362031860351562500e+02
-2.406147613525390625e+02
-2.386574707031250000e+02
-2.408227386474609375e+02
-2.388311614990234375e+02
-2.408853912353515625e+02
-2.365078277587890625e+02
-2.411685485839843750e+02
-2.391140594482421875e+02
-2.360514221191406250e+02
-2.384260101318359375e+02
-2.420749053955078125e+02
-2.396519622802734375e+02
-2.352558135986328125e+02
-2.405760498046875000e+02
-2.378203125000000000e+02
-2.420596008300781250e+02
-2.362111053466796875e+02
-2.361793975830078125e+02
-2.354374084472656250e+02
-2.377332153320312500e+02
-2.413435668945312500e+02
-2.408359832763671875e+02
-2.410137329101562500e+02
-2.356051177978515625e+02
-2.383327331542968750e+02
-2.363834075927734375e+02
-2.420764160156250000e+02
-2.410368347167968750e+02
-2.353915405273437500e+02
-2.408662109375000000e+02
-2.410677185058593750e+02
-2.420749969482421875e+02
-2.410341949462890625e+02
-2.376743316650390625e+02
-2.365564422607421875e+02
-2.357285308837890625e+02
-2.358302001953125000e+02
-2.387437591552734375e+02
-2.371700286865234375e+02
-2.416265716552734375e+02
-2.420773773193359375e+02
-2.408108215332031250e+02
-2.362900085449218750e+02
-2.402841796875000000e+02
-2.391685638427734375e+02
-2.387849578857421875e+02
-2.420692138671875000e+02
-2.420703735351562500e+02
-2.406188659667968750e+02
-2.420762786865234375e+02
-2.371323394775390625e+02
-2.385261993408203125e+02
-2.409643096923828125e+02
-2.365494689941406250e+02
-2.388374481201171875e+02
-2.386061401367187500e+02
-2.405572357177734375e+02
-2.408498229980468750e+02
-2.376446838378906250e+02
-2.362524414062500000e+02
-2.360739746093750000e+02
-2.420718536376953125e+02
-2.411931152343750000e+02
-2.384019927978515625e+02
-2.385771484375000000e+02
-2.408928375244140625e+02
-2.409128417968750000e+02
-2.396493072509765625e+02
-2.420645446777343750e+02
-2.334890747070312500e+02
-2.420738677978515625e+02
-2.384939880371093750e+02
-2.382352447509765625e+02
-2.411096191406250000e+02
-2.349769592285156250e+02
-2.410413818359375000e+02
-2.379461975097656250e+02
-2.374718933105468750e+02
-2.365591430664062500e+02
-2.372657470703125000e+02
-2.347904663085937500e+02
-2.411861114501953125e+02
-2.359030914306640625e+02
-2.382140808105468750e+02
-2.385897979736328125e+02
-2.374259796142578125e+02
-2.389428710937500000e+02
-2.363429260253906250e+02
-2.420722503662109375e+02
-2.420762023925781250e+02
-2.406846008300781250e+02
-2.358498840332031250e+02
-2.409855194091796875e+02
-2.409482116699218750e+02
-2.420730590820312500e+02
-2.420327911376953125e+02
-2.334545898437500000e+02
-2.355570526123046875e+02
-2.361570587158203125e+02
-2.392218475341796875e+02
-2.369478759765625000e+02
-2.388303070068359375e+02
-2.367101898193359375e+02
-2.411263275146484375e+02
-2.358474578857421875e+02
-2.368546295166015625e+02
-2.420775451660156250e+02
-2.371948089599609375e+02
-2.382279968261718750e+02
-2.409869232177734375e+02
-2.408205108642578125e+02
-2.388845672607421875e+02
-2.408612518310546875e+02
-2.419934234619140625e+02
-2.392720489501953125e+02
-2.379170379638671875e+02
-2.410709075927734375e+02
-2.409420166015625000e+02
-2.410618438720703125e+02
-2.364795989990234375e+02
-2.411808319091796875e+02
-2.370945587158203125e+02
-2.408966827392578125e+02
-2.364245147705078125e+02
-2.409759521484375000e+02
-2.410465698242187500e+02
-2.408805847167968750e+02
-2.408641052246093750e+02
-2.408912048339843750e+02
-2.409739837646484375e+02
-2.372082519531250000e+02
-2.410007476806640625e+02
-2.362559356689453125e+02
-2.406026916503906250e+02
-2.408280334472656250e+02
-2.385178833007812500e+02
-2.409132080078125000e+02
-2.409772338867187500e+02
-2.410739440917968750e+02
-2.368912200927734375e+02
-2.411506805419921875e+02
-2.356138763427734375e+02
-2.355053558349609375e+02
-2.388055114746093750e+02
-2.406929931640625000e+02
-2.410689697265625000e+02
-2.412358093261718750e+02
-2.388596496582031250e+02
-2.386825408935546875e+02
-2.408583221435546875e+02
-2.382469787597656250e+02
-2.367266998291015625e+02
-2.409183807373046875e+02
-2.407649688720703125e+02
-2.358455657958984375e+02
-2.383764343261718750e+02
-2.412206115722656250e+02
-2.409638366699218750e+02
-2.406698608398437500e+02
-2.385789184570312500e+02
-2.365544433593750000e+02
-2.389404907226562500e+02
-2.364802093505859375e+02
-2.365099792480468750e+02
-2.395938262939453125e+02
-2.409129180908203125e+02
-2.420759277343750000e+02
-2.416265716552734375e+02
-2.409588165283203125e+02
-2.390171661376953125e+02
-2.408985443115234375e+02
-2.392246093750000000e+02
-2.378345947265625000e+02
-2.373979644775390625e+02
-2.387355346679687500e+02
-2.375749511718750000e+02
-2.382698059082031250e+02
-2.374724426269531250e+02
-2.359463043212890625e+02
-2.361494903564453125e+02
-2.408273773193359375e+02
-2.410643615722656250e+02
-2.387672119140625000e+02
-2.375408477783203125e+02
-2.420464782714843750e+02
-2.368601379394531250e+02
-2.409463043212890625e+02
-2.373832397460937500e+02
-2.364787750244140625e+02
-2.390912322998046875e+02
-2.329217834472656250e+02
-2.338672790527343750e+02
-2.385250396728515625e+02
-2.387031860351562500e+02
-2.392644348144531250e+02
-2.407024230957031250e+02
-2.345066223144531250e+02
-2.364132385253906250e+02
-2.372263183593750000e+02
-2.354866027832031250e+02
-2.355879211425781250e+02
-2.409793853759765625e+02
-2.387127380371093750e+02
-2.383381042480468750e+02
-2.409255828857421875e+02
-2.384061737060546875e+02
-2.420768432617187500e+02
-2.386056976318359375e+02
-2.416265716552734375e+02
-2.406144714355468750e+02
-2.412638854980468750e+02
-2.354032135009765625e+02
-2.305573272705078125e+02
-2.359458923339843750e+02
-2.375156097412109375e+02
-2.347281036376953125e+02
-2.408243408203125000e+02
-2.410921325683593750e+02
-2.406592102050781250e+02
-2.407582702636718750e+02
-2.381731262207031250e+02
-2.379832305908203125e+02
-2.410245513916015625e+02
-2.406810455322265625e+02
-2.391452331542968750e+02
-2.373475646972656250e+02
-2.420765075683593750e+02
-2.405182800292968750e+02
-2.385660400390625000e+02
-2.355382080078125000e+02
-2.385143737792968750e+02
-2.366771850585937500e+02
-2.409514465332031250e+02
-2.390445861816406250e+02
-2.411945800781250000e+02
-2.389857482910156250e+02
-2.376606292724609375e+02
-2.411636810302734375e+02
-2.385977478027343750e+02
-2.365748443603515625e+02
-2.407846679687500000e+02
-2.365091094970703125e+02
-2.378944244384765625e+02
-2.349010925292968750e+02
-2.383530883789062500e+02
-2.368748474121093750e+02
-2.349782562255859375e+02
-2.335480499267578125e+02
-2.352623901367187500e+02
-2.420725555419921875e+02
-2.365807647705078125e+02
-2.399526062011718750e+02
-2.410984497070312500e+02
-2.408934173583984375e+02
-2.420773620605468750e+02
-2.420375823974609375e+02
-2.361916961669921875e+02
-2.358782348632812500e+02
-2.384727783203125000e+02
-2.362894439697265625e+02
-2.357670135498046875e+02
-2.409846343994140625e+02
-2.407642822265625000e+02
-2.387844848632812500e+02
-2.410311279296875000e+02
-2.358527221679687500e+02
-2.409187774658203125e+02
-2.361770324707031250e+02
-2.366776123046875000e+02
-2.359074859619140625e+02
-2.407976837158203125e+02
-2.391225280761718750e+02
-2.387207794189453125e+02
-2.407664489746093750e+02
-2.409409637451171875e+02
-2.410149383544921875e+02
-2.408134002685546875e+02
-2.369385986328125000e+02
-2.373902587890625000e+02
-2.389486389160156250e+02
-2.365677947998046875e+02
-2.371610565185546875e+02
-2.360056915283203125e+02
-2.406534729003906250e+02
-2.378419952392578125e+02
-2.348309936523437500e+02
-2.399982299804687500e+02
-2.405822143554687500e+02
-2.408786773681640625e+02
-2.420428314208984375e+02
-2.409095764160156250e+02
-2.410789642333984375e+02
-2.347021331787109375e+02
-2.420388946533203125e+02
-2.384843292236328125e+02
-2.410027770996093750e+02
-2.410135955810546875e+02
-2.406019287109375000e+02
-2.407206420898437500e+02
-2.411004180908203125e+02
-2.364281158447265625e+02
-2.402359313964843750e+02
-2.409275054931640625e+02
-2.357653808593750000e+02
-2.405695037841796875e+02
-2.411742553710937500e+02
-2.380673675537109375e+02
-2.407844238281250000e+02
-2.408720245361328125e+02
-2.365612487792968750e+02
-2.409879913330078125e+02
-2.396540527343750000e+02
-2.372141265869140625e+02
-2.370318908691406250e+02
-2.407966918945312500e+02
-2.409291076660156250e+02
-2.375001831054687500e+02
-2.411278381347656250e+02
-2.389111480712890625e+02
-2.408295440673828125e+02
-2.410905761718750000e+02
-2.410834350585937500e+02
-2.411252441406250000e+02
-2.384151000976562500e+02
-2.364521484375000000e+02
-2.388270874023437500e+02
-2.406872863769531250e+02
-2.409553833007812500e+02
-2.390552215576171875e+02
-2.366558227539062500e+02
-2.409031829833984375e+02
-2.340064697265625000e+02
-2.408143005371093750e+02
-2.373041839599609375e+02
-2.392495117187500000e+02
-2.354763336181640625e+02
-2.410151672363281250e+02
-2.368257141113281250e+02
-2.376195526123046875e+02
-2.408728637695312500e+02
-2.407662506103515625e+02
-2.420715332031250000e+02
-2.351546936035156250e+02
-2.364773406982421875e+02
-2.409522857666015625e+02
-2.368516693115234375e+02
-2.409420013427734375e+02
-2.381797332763671875e+02
-2.407299652099609375e+02
-2.411347808837890625e+02
-2.385458984375000000e+02
-2.384795684814453125e+02
-2.370389862060546875e+02
-2.353558807373046875e+02
-2.351518096923828125e+02
-2.373588104248046875e+02
-2.372183990478515625e+02
-2.391451263427734375e+02
-2.363947601318359375e+02
-2.410767211914062500e+02
-2.406253662109375000e+02
-2.358317260742187500e+02
-2.380967559814453125e+02
-2.408878631591796875e+02
-2.406098632812500000e+02
-2.357349395751953125e+02
-2.352908477783203125e+02
-2.414168701171875000e+02
-2.413145751953125000e+02
-2.372714843750000000e+02
-2.381434020996093750e+02
-2.420771789550781250e+02
-2.359882659912109375e+02
-2.384604187011718750e+02
-2.407825775146484375e+02
-2.355341186523437500e+02
-2.410513763427734375e+02
-2.412427825927734375e+02
-2.388943176269531250e+02
-2.376334991455078125e+02
-2.373530883789062500e+02
-2.420777130126953125e+02
-2.390804138183593750e+02
-2.408646087646484375e+02
-2.366487731933593750e+02
-2.410812835693359375e+02
-2.391747283935546875e+02
-2.407051086425781250e+02
-2.407192687988281250e+02
-2.410264129638671875e+02
-2.329268188476562500e+02
-2.399324645996093750e+02
-2.409080200195312500e+02
-2.390233459472656250e+02
-2.398089752197265625e+02
-2.385901184082031250e+02
-2.411005554199218750e+02
-2.390534362792968750e+02
-2.410324707031250000e+02
-2.366672515869140625e+02
-2.374842224121093750e+02
-2.355602111816406250e+02
-2.356920623779296875e+02
-2.420612792968750000e+02
-2.420057830810546875e+02
-2.370422515869140625e+02
-2.390562438964843750e+02
-2.407845306396484375e+02
-2.381712799072265625e+02
-2.408686218261718750e+02
-2.327218627929687500e+02
-2.406468200683593750e+02
-2.407706298828125000e+02
-2.407464599609375000e+02
-2.386597290039062500e+02
-2.411334381103515625e+02
-2.382448120117187500e+02
-2.369335327148437500e+02
-2.367192840576171875e+02
-2.406991882324218750e+02
-2.364785614013671875e+02
-2.411787109375000000e+02
-2.409452362060546875e+02
-2.390437011718750000e+02
-2.410804290771484375e+02
-2.351745910644531250e+02
-2.382268371582031250e+02
-2.368056030273437500e+02
-2.410169982910156250e+02
-2.408870239257812500e+02
-2.409413604736328125e+02
-2.410384368896484375e+02
-2.408583984375000000e+02
-2.408473510742187500e+02
-2.384698638916015625e+02
-2.388748779296875000e+02
-2.349473266601562500e+02
-2.357020874023437500e+02
-2.372381439208984375e+02
-2.410936584472656250e+02
-2.369262390136718750e+02
-2.409483795166015625e+02
-2.344178466796875000e+02
-2.408685607910156250e+02
-2.377255096435546875e+02
-2.405242462158203125e+02
-2.407880096435546875e+02
-2.420776672363281250e+02
-2.390023803710937500e+02
-2.403681488037109375e+02
-2.390611724853515625e+02
-2.387516632080078125e+02
-2.420773315429687500e+02
-2.373783111572265625e+02
-2.360607757568359375e+02
-2.359211578369140625e+02
-2.395946502685546875e+02
-2.391120452880859375e+02
-2.389664764404296875e+02
-2.410720520019531250e+02
-2.408894958496093750e+02
-2.407723388671875000e+02
-2.378415374755859375e+02
-2.357735137939453125e+02
-2.365888366699218750e+02
-2.370811614990234375e+02
-2.347895355224609375e+02
-2.363171539306640625e+02
-2.367165222167968750e+02
-2.383322906494140625e+02
-2.381546936035156250e+02
-2.391926879882812500e+02
-2.409307098388671875e+02
-2.409188995361328125e+02
-2.349640960693359375e+02
-2.411956787109375000e+02
-2.407567749023437500e+02
-2.409541473388671875e+02
-2.409909362792968750e+02
-2.420574798583984375e+02
-2.388166656494140625e+02
-2.351143035888671875e+02
-2.373999481201171875e+02
-2.408858795166015625e+02
-2.368915252685546875e+02
-2.376976318359375000e+02
-2.342247009277343750e+02
-2.406521148681640625e+02
-2.360226135253906250e+02
-2.416266021728515625e+02
-2.384190063476562500e+02
-2.406345367431640625e+02
-2.416266021728515625e+02
-2.407263793945312500e+02
-2.411143951416015625e+02
-2.408777770996093750e+02
-2.398332977294921875e+02
-2.420745086669921875e+02
-2.409707183837890625e+02
-2.388457489013671875e+02
-2.408769836425781250e+02
-2.392901306152343750e+02
-2.358276977539062500e+02
-2.408956909179687500e+02
-2.410916900634765625e+02
-2.363242340087890625e+02
-2.420742492675781250e+02
-2.385330657958984375e+02
-2.420454711914062500e+02
-2.411598205566406250e+02
-2.359920806884765625e+02
-2.410165710449218750e+02
-2.383627014160156250e+02
-2.370220947265625000e+02
-2.354834747314453125e+02
-2.385012512207031250e+02
-2.388540039062500000e+02
-2.365274810791015625e+02
-2.420420532226562500e+02
-2.384705657958984375e+02
-2.410819244384765625e+02
-2.387871246337890625e+02
-2.411258850097656250e+02
-2.348117065429687500e+02
-2.408881530761718750e+02
-2.411942443847656250e+02
-2.372040252685546875e+02
-2.349123382568359375e+02
-2.365554656982421875e+02
-2.354696350097656250e+02
-2.353611450195312500e+02
-2.420685424804687500e+02
-2.412211761474609375e+02
-2.409761505126953125e+02
-2.370954132080078125e+02
-2.409179840087890625e+02
-2.412803649902343750e+02
-2.411089324951171875e+02
-2.403558197021484375e+02
-2.409185333251953125e+02
-2.359077148437500000e+02
-2.368833160400390625e+02
-2.388362731933593750e+02
-2.373195800781250000e+02
-2.409775848388671875e+02
-2.412030639648437500e+02
-2.355192413330078125e+02
-2.391921081542968750e+02
-2.380252838134765625e+02
-2.409672241210937500e+02
-2.406830139160156250e+02
-2.407514648437500000e+02
-2.385080108642578125e+02
-2.389897155761718750e+02
-2.387752227783203125e+02
-2.368971405029296875e+02
-2.359274444580078125e+02
-2.398011169433593750e+02
-2.406987152099609375e+02
-2.403355712890625000e+02
-2.370938262939453125e+02
-2.382937927246093750e+02
-2.412591400146484375e+02
-2.374684143066406250e+02
-2.381146545410156250e+02
-2.410918731689453125e+02
-2.388535003662109375e+02
-2.406650085449218750e+02
-2.360053100585937500e+02
-2.408956604003906250e+02
-2.416265716552734375e+02
-2.369448242187500000e+02
-2.410258789062500000e+02
-2.410146026611328125e+02
-2.363352355957031250e+02
-2.410280761718750000e+02
-2.361226501464843750e+02
-2.408826446533203125e+02
-2.406845397949218750e+02
-2.410639038085937500e+02
-2.408726654052734375e+02
-2.405694122314453125e+02
-2.351344909667968750e+02
-2.409186859130859375e+02
-2.386172637939453125e+02
-2.409351348876953125e+02
-2.357645111083984375e+02
-2.407392730712890625e+02
-2.377913970947265625e+02
-2.350503997802734375e+02
-2.411017150878906250e+02
-2.391638336181640625e+02
-2.408611907958984375e+02
-2.388233489990234375e+02
-2.410705871582031250e+02
-2.411441040039062500e+02
-2.361089172363281250e+02
-2.389702911376953125e+02
-2.374851074218750000e+02
-2.409457092285156250e+02
-2.384194946289062500e+02
-2.375557556152343750e+02
-2.401964416503906250e+02
-2.384224853515625000e+02
-2.350327758789062500e+02
-2.390994873046875000e+02
-2.386401824951171875e+02
-2.364900817871093750e+02
-2.385866394042968750e+02
-2.366491546630859375e+02
-2.360253601074218750e+02
-2.359653625488281250e+02
-2.408464965820312500e+02
-2.359190826416015625e+02
-2.396961212158203125e+02
-2.358729858398437500e+02
-2.378978271484375000e+02
-2.387289276123046875e+02
-2.370792999267578125e+02
-2.363247680664062500e+02
-2.363902282714843750e+02
-2.385884552001953125e+02
-2.410508422851562500e+02
-2.409166717529296875e+02
-2.341103820800781250e+02
-2.379178009033203125e+02
-2.406196136474609375e+02
-2.407802429199218750e+02
-2.360048980712890625e+02
-2.420525207519531250e+02
-2.356305084228515625e+02
-2.387801361083984375e+02
-2.405418853759765625e+02
-2.358981475830078125e+02
-2.374808044433593750e+02
-2.406033020019531250e+02
-2.420740509033203125e+02
-2.364691009521484375e+02
-2.379454956054687500e+02
-2.391548156738281250e+02
-2.388837127685546875e+02
-2.385746459960937500e+02
-2.389015502929687500e+02
-2.420551300048828125e+02
-2.341564025878906250e+02
-2.358918914794921875e+02
-2.347633972167968750e+02
-2.382553100585937500e+02
-2.408212280273437500e+02
-2.370852966308593750e+02
-2.392449035644531250e+02
-2.384432830810546875e+02
-2.407562408447265625e+02
-2.411812438964843750e+02
-2.355410919189453125e+02
-2.409295959472656250e+02
-2.410743560791015625e+02
-2.387019805908203125e+02
-2.377124786376953125e+02
-2.353014526367187500e+02
-2.378297729492187500e+02
-2.419815521240234375e+02
-2.353147125244140625e+02
-2.379794158935546875e+02
-2.407805480957031250e+02
-2.381313781738281250e+02
-2.355393371582031250e+02
-2.354462890625000000e+02
-2.359280090332031250e+02
-2.410077972412109375e+02
-2.389730072021484375e+02
-2.408365936279296875e+02
-2.420768127441406250e+02
-2.389943695068359375e+02
-2.410848388671875000e+02
-2.409820098876953125e+02
-2.411921844482421875e+02
-2.407942657470703125e+02
-2.409091796875000000e+02
-2.412332458496093750e+02
-2.369162139892578125e+02
-2.356513366699218750e+02
-2.365201110839843750e+02
-2.410271911621093750e+02
-2.383110046386718750e+02
-2.410079040527343750e+02
-2.380238952636718750e+02
-2.408841400146484375e+02
-2.408164672851562500e+02
-2.388775177001953125e+02
-2.392297973632812500e+02
-2.410237884521484375e+02
-2.406060028076171875e+02
-2.420775909423828125e+02
-2.420267028808593750e+02
-2.349645385742187500e+02
-2.334737396240234375e+02
-2.418854217529296875e+02
-2.350762634277343750e+02
-2.405778350830078125e+02
-2.407330169677734375e+02
-2.411476440429687500e+02
-2.357080078125000000e+02
-2.420751953125000000e+02
-2.384436798095703125e+02
-2.405781250000000000e+02
-2.367577819824218750e+02
-2.408466796875000000e+02
-2.410452117919921875e+02
-2.407909545898437500e+02
-2.378556060791015625e+02
-2.361216430664062500e+02
-2.384619750976562500e+02
-2.407907562255859375e+02
-2.362310028076171875e+02
-2.373137207031250000e+02
-2.391171722412109375e+02
-2.391536407470703125e+02
-2.409117889404296875e+02
-2.410070037841796875e+02
-2.354342803955078125e+02
-2.411230316162109375e+02
-2.383874206542968750e+02
-2.410882568359375000e+02
-2.411195526123046875e+02
-2.411843719482421875e+02
-2.385265045166015625e+02
-2.360704956054687500e+02
-2.382134552001953125e+02
-2.392581787109375000e+02
-2.386478881835937500e+02
-2.363907012939453125e+02
-2.412173004150390625e+02
-2.420226745605468750e+02
-2.367593078613281250e+02
-2.368874511718750000e+02
-2.409893646240234375e+02
-2.349607696533203125e+02
-2.410350494384765625e+02
-2.361807250976562500e+02
-2.387748870849609375e+02
-2.358065032958984375e+02
-2.367024230957031250e+02
-2.411159210205078125e+02
-2.409818267822265625e+02
-2.410689239501953125e+02
-2.376792144775390625e+02
-2.363475341796875000e+02
-2.371664733886718750e+02
-2.406044311523437500e+02
-2.404049987792968750e+02
-2.407867889404296875e+02
-2.378218994140625000e+02
-2.381977844238281250e+02
-2.387161865234375000e+02
-2.359520416259765625e+02
-2.341221160888671875e+02
-2.406468353271484375e+02
-2.409780578613281250e+02
-2.369363861083984375e+02
-2.383382263183593750e+02
-2.373989105224609375e+02
-2.407854614257812500e+02
-2.416265716552734375e+02
-2.387134704589843750e+02
-2.393520050048828125e+02
-2.406592559814453125e+02
-2.420755920410156250e+02
-2.368804321289062500e+02
-2.410401153564453125e+02
-2.384749908447265625e+02
-2.380916748046875000e+02
-2.416266021728515625e+02
-2.409497985839843750e+02
-2.353787536621093750e+02
-2.366198425292968750e+02
-2.360811462402343750e+02
-2.382286834716796875e+02
-2.377789459228515625e+02
-2.350430755615234375e+02
-2.358082427978515625e+02
-2.360848388671875000e+02
-2.413301239013671875e+02
-2.416265716552734375e+02
-2.407237243652343750e+02
-2.407845916748046875e+02
-2.396384429931640625e+02
-2.342032623291015625e+02
-2.359910736083984375e+02
-2.377769622802734375e+02
-2.398273468017578125e+02
-2.370174102783203125e+02
-2.408055114746093750e+02
-2.410614471435546875e+02
-2.408244171142578125e+02
-2.408102874755859375e+02
-2.411073455810546875e+02
-2.388730468750000000e+02
-2.408397827148437500e+02
-2.386338043212890625e+02
-2.349849090576171875e+02
-2.356875915527343750e+02
-2.407702026367187500e+02
-2.408567657470703125e+02
-2.392860412597656250e+02
-2.414521026611328125e+02
-2.412257995605468750e+02
-2.409698638916015625e+02
-2.408414001464843750e+02
-2.410918884277343750e+02
-2.363184051513671875e+02
-2.420760803222656250e+02
-2.412257232666015625e+02
-2.373738098144531250e+02
-2.379158935546875000e+02
-2.353141326904296875e+02
-2.411149597167968750e+02
-2.411334533691406250e+02
-2.352646026611328125e+02
-2.387589569091796875e+02
-2.383303222656250000e+02
-2.364421539306640625e+02
-2.358223114013671875e+02
-2.360720367431640625e+02
-2.389863281250000000e+02
-2.363196868896484375e+02
-2.420083618164062500e+02
-2.411396179199218750e+02
-2.396112060546875000e+02
-2.420341796875000000e+02
-2.411147918701171875e+02
-2.348946838378906250e+02
-2.409315795898437500e+02
-2.408766021728515625e+02
-2.339480590820312500e+02
-2.420700073242187500e+02
-2.371898956298828125e+02
-2.343736572265625000e+02
-2.409226226806640625e+02
-2.410417022705078125e+02
-2.407203979492187500e+02
-2.412166137695312500e+02
-2.345128021240234375e+02
-2.370135192871093750e+02
-2.416265716552734375e+02
-2.408093719482421875e+02
-2.420772247314453125e+02
-2.408398437500000000e+02
-2.401165008544921875e+02
-2.407589874267578125e+02
-2.410785522460937500e+02
-2.360636291503906250e+02
-2.371297607421875000e+02
-2.373526306152343750e+02
-2.341433868408203125e+02
-2.410367889404296875e+02
-2.386738433837890625e+02
-2.387894439697265625e+02
-2.371000518798828125e+02
-2.409382171630859375e+02
-2.356456909179687500e+02
-2.410635528564453125e+02
-2.419719848632812500e+02
-2.387917633056640625e+02
-2.359895324707031250e+02
-2.375107421875000000e+02
-2.367165222167968750e+02
-2.410977630615234375e+02
-2.388462219238281250e+02
-2.408299865722656250e+02
-2.397170562744140625e+02
-2.367397766113281250e+02
-2.362290496826171875e+02
-2.420492095947265625e+02
-2.378445129394531250e+02
-2.362498779296875000e+02
-2.406531677246093750e+02
-2.374146575927734375e+02
-2.407397766113281250e+02
-2.375980987548828125e+02
-2.391615295410156250e+02
-2.361539916992187500e+02
-2.371834106445312500e+02
-2.410067291259765625e+02
