2.562999963760375977e+00 0.000000000000000000e+00 0.000000000000000000e+00 1.281499981880187988e+00 2.219623088836669922e+00 0.000000000000000000e+00 0.000000000000000000e+00 0.000000000000000000e+00 3.000000000000000000e+01
2.456000089645385742e+00 0.000000000000000000e+00 0.000000000000000000e+00 1.228000044822692871e+00 2.126958370208740234e+00 0.000000000000000000e+00 0.000000000000000000e+00 0.000000000000000000e+00 3.000000000000000000e+01
2.426000118255615234e+00 0.000000000000000000e+00 0.000000000000000000e+00 1.213000059127807617e+00 2.100977659225463867e+00 0.000000000000000000e+00 0.000000000000000000e+00 0.000000000000000000e+00 3.000000000000000000e+01
2.450000047683715820e+00 0.000000000000000000e+00 0.000000000000000000e+00 1.225000023841857910e+00 2.121762275695800781e+00 0.000000000000000000e+00 0.000000000000000000e+00 0.000000000000000000e+00 3.000000000000000000e+01
2.450999975204467773e+00 0.000000000000000000e+00 0.000000000000000000e+00 1.225499987602233887e+00 2.122628211975097656e+00 0.000000000000000000e+00 0.000000000000000000e+00 0.000000000000000000e+00 3.000000000000000000e+01
2.536999940872192383e+00 0.000000000000000000e+00 0.000000000000000000e+00 1.268499970436096191e+00 2.197106361389160156e+00 0.000000000000000000e+00 0.000000000000000000e+00 0.000000000000000000e+00 3.000000000000000000e+01
2.588999986648559570e+00 0.000000000000000000e+00 0.000000000000000000e+00 1.294499993324279785e+00 2.242139816284179688e+00 0.000000000000000000e+00 0.000000000000000000e+00 0.000000000000000000e+00 3.000000000000000000e+01
2.420000076293945312e+00 0.000000000000000000e+00 0.000000000000000000e+00 1.210000038146972656e+00 2.095781564712524414e+00 0.000000000000000000e+00 0.000000000000000000e+00 0.000000000000000000e+00 3.000000000000000000e+01
2.516000032424926758e+00 0.000000000000000000e+00 0.000000000000000000e+00 1.258000016212463379e+00 2.178920030593872070e+00 0.000000000000000000e+00 0.000000000000000000e+00 0.000000000000000000e+00 3.000000000000000000e+01
2.453000068664550781e+00 0.000000000000000000e+00 0.000000000000000000e+00 1.226500034332275391e+00 2.124360322952270508e+00 0.000000000000000000e+00 0.000000000000000000e+00 0.000000000000000000e+00 3.000000000000000000e+01
2.424999952316284180e+00 0.000000000000000000e+00 0.000000000000000000e+00 1.212499976158142090e+00 2.100111722946166992e+00 0.000000000000000000e+00 0.000000000000000000e+00 0.000000000000000000e+00 3.000000000000000000e+01
2.375000000000000000e+00 0.000000000000000000e+00 0.000000000000000000e+00 1.187500000000000000e+00 2.056810379028320312e+00 0.000000000000000000e+00 0.000000000000000000e+00 0.000000000000000000e+00 3.000000000000000000e+01
2.355000019073486328e+00 0.000000000000000000e+00 0.000000000000000000e+00 1.177500009536743164e+00 2.039489746093750000e+00 0.000000000000000000e+00 0.000000000000000000e+00 0.000000000000000000e+00 3.000000000000000000e+01
2.436000108718872070e+00 0.000000000000000000e+00 0.000000000000000000e+00 1.218000054359436035e+00 2.109637975692749023e+00 0.000000000000000000e+00 0.000000000000000000e+00 0.000000000000000000e+00 3.000000000000000000e+01
2.430000066757202148e+00 0.000000000000000000e+00 0.000000000000000000e+00 1.215000033378601074e+00 2.104441642761230469e+00 0.000000000000000000e+00 0.000000000000000000e+00 0.000000000000000000e+00 3.000000000000000000e+01
2.471999883651733398e+00 0.000000000000000000e+00 0.000000000000000000e+00 1.235999941825866699e+00 2.140814781188964844e+00 0.000000000000000000e+00 0.000000000000000000e+00 0.000000000000000000e+00 3.000000000000000000e+01
2.459000110626220703e+00 0.000000000000000000e+00 0.000000000000000000e+00 1.229500055313110352e+00 2.129556417465209961e+00 0.000000000000000000e+00 0.000000000000000000e+00 0.000000000000000000e+00 3.000000000000000000e+01
2.377000093460083008e+00 0.000000000000000000e+00 0.000000000000000000e+00 1.188500046730041504e+00 2.058542490005493164e+00 0.000000000000000000e+00 0.000000000000000000e+00 0.000000000000000000e+00 3.000000000000000000e+01
2.341000080108642578e+00 0.000000000000000000e+00 0.000000000000000000e+00 1.170500040054321289e+00 2.027365446090698242e+00 0.000000000000000000e+00 0.000000000000000000e+00 0.000000000000000000e+00 3.000000000000000000e+01
2.352999925613403320e+00 0.000000000000000000e+00 0.000000000000000000e+00 1.176499962806701660e+00 2.037757873535156250e+00 0.000000000000000000e+00 0.000000000000000000e+00 0.000000000000000000e+00 3.000000000000000000e+01
2.361000061035156250e+00 0.000000000000000000e+00 0.000000000000000000e+00 1.180500030517578125e+00 2.044686079025268555e+00 0.000000000000000000e+00 0.000000000000000000e+00 0.000000000000000000e+00 3.000000000000000000e+01
2.466000080108642578e+00 0.000000000000000000e+00 0.000000000000000000e+00 1.233000040054321289e+00 2.135618686676025391e+00 0.000000000000000000e+00 0.000000000000000000e+00 0.000000000000000000e+00 3.000000000000000000e+01
2.578999996185302734e+00 0.000000000000000000e+00 0.000000000000000000e+00 1.289499998092651367e+00 2.233479499816894531e+00 0.000000000000000000e+00 0.000000000000000000e+00 0.000000000000000000e+00 3.000000000000000000e+01
2.342999935150146484e+00 0.000000000000000000e+00 0.000000000000000000e+00 1.171499967575073242e+00 2.029097557067871094e+00 0.000000000000000000e+00 0.000000000000000000e+00 0.000000000000000000e+00 3.000000000000000000e+01
2.388999938964843750e+00 0.000000000000000000e+00 0.000000000000000000e+00 1.194499969482421875e+00 2.068934679031372070e+00 0.000000000000000000e+00 0.000000000000000000e+00 0.000000000000000000e+00 3.000000000000000000e+01
2.492000102996826172e+00 0.000000000000000000e+00 0.000000000000000000e+00 1.246000051498413086e+00 2.158135414123535156e+00 0.000000000000000000e+00 0.000000000000000000e+00 0.000000000000000000e+00 3.000000000000000000e+01
2.545000076293945312e+00 0.000000000000000000e+00 0.000000000000000000e+00 1.272500038146972656e+00 2.204034566879272461e+00 0.000000000000000000e+00 0.000000000000000000e+00 0.000000000000000000e+00 3.000000000000000000e+01
2.446000099182128906e+00 0.000000000000000000e+00 0.000000000000000000e+00 1.223000049591064453e+00 2.118298053741455078e+00 0.000000000000000000e+00 0.000000000000000000e+00 0.000000000000000000e+00 3.000000000000000000e+01
2.480000019073486328e+00 0.000000000000000000e+00 0.000000000000000000e+00 1.240000009536743164e+00 2.147742986679077148e+00 0.000000000000000000e+00 0.000000000000000000e+00 0.000000000000000000e+00 3.000000000000000000e+01
2.371000051498413086e+00 0.000000000000000000e+00 0.000000000000000000e+00 1.185500025749206543e+00 2.053346157073974609e+00 0.000000000000000000e+00 0.000000000000000000e+00 0.000000000000000000e+00 3.000000000000000000e+01
2.417999982833862305e+00 0.000000000000000000e+00 0.000000000000000000e+00 1.208999991416931152e+00 2.094049453735351562e+00 0.000000000000000000e+00 0.000000000000000000e+00 0.000000000000000000e+00 3.000000000000000000e+01
2.421999931335449219e+00 0.000000000000000000e+00 0.000000000000000000e+00 1.210999965667724609e+00 2.097513437271118164e+00 0.000000000000000000e+00 0.000000000000000000e+00 0.000000000000000000e+00 3.000000000000000000e+01
2.569000005722045898e+00 0.000000000000000000e+00 0.000000000000000000e+00 1.284500002861022949e+00 2.224819183349609375e+00 0.000000000000000000e+00 0.000000000000000000e+00 0.000000000000000000e+00 3.000000000000000000e+01
2.585000038146972656e+00 0.000000000000000000e+00 0.000000000000000000e+00 1.292500019073486328e+00 2.238675594329833984e+00 0.000000000000000000e+00 0.000000000000000000e+00 0.000000000000000000e+00 3.000000000000000000e+01
2.503999948501586914e+00 0.000000000000000000e+00 0.000000000000000000e+00 1.251999974250793457e+00 2.168527603149414062e+00 0.000000000000000000e+00 0.000000000000000000e+00 0.000000000000000000e+00 3.000000000000000000e+01
2.517999887466430664e+00 0.000000000000000000e+00 0.000000000000000000e+00 1.258999943733215332e+00 2.180651903152465820e+00 0.000000000000000000e+00 0.000000000000000000e+00 0.000000000000000000e+00 3.000000000000000000e+01
2.576999902725219727e+00 0.000000000000000000e+00 0.000000000000000000e+00 1.288499951362609863e+00 2.231747388839721680e+00 0.000000000000000000e+00 0.000000000000000000e+00 0.000000000000000000e+00 3.000000000000000000e+01
2.348999977111816406e+00 0.000000000000000000e+00 0.000000000000000000e+00 1.174499988555908203e+00 2.034293651580810547e+00 0.000000000000000000e+00 0.000000000000000000e+00 0.000000000000000000e+00 3.000000000000000000e+01
2.453999996185302734e+00 0.000000000000000000e+00 0.000000000000000000e+00 1.226999998092651367e+00 2.125226259231567383e+00 0.000000000000000000e+00 0.000000000000000000e+00 0.000000000000000000e+00 3.000000000000000000e+01
2.473000049591064453e+00 0.000000000000000000e+00 0.000000000000000000e+00 1.236500024795532227e+00 2.141680717468261719e+00 0.000000000000000000e+00 0.000000000000000000e+00 0.000000000000000000e+00 3.000000000000000000e+01
2.483000040054321289e+00 0.000000000000000000e+00 0.000000000000000000e+00 1.241500020027160645e+00 2.150341033935546875e+00 0.000000000000000000e+00 0.000000000000000000e+00 0.000000000000000000e+00 3.000000000000000000e+01
2.515000104904174805e+00 0.000000000000000000e+00 0.000000000000000000e+00 1.257500052452087402e+00 2.178053855895996094e+00 0.000000000000000000e+00 0.000000000000000000e+00 0.000000000000000000e+00 3.000000000000000000e+01
2.490999937057495117e+00 0.000000000000000000e+00 0.000000000000000000e+00 1.245499968528747559e+00 2.157269239425659180e+00 0.000000000000000000e+00 0.000000000000000000e+00 0.000000000000000000e+00 3.000000000000000000e+01
2.427999973297119141e+00 0.000000000000000000e+00 0.000000000000000000e+00 1.213999986648559570e+00 2.102709770202636719e+00 0.000000000000000000e+00 0.000000000000000000e+00 0.000000000000000000e+00 3.000000000000000000e+01
2.489000082015991211e+00 0.000000000000000000e+00 0.000000000000000000e+00 1.244500041007995605e+00 2.155537128448486328e+00 0.000000000000000000e+00 0.000000000000000000e+00 0.000000000000000000e+00 3.000000000000000000e+01
2.500000000000000000e+00 0.000000000000000000e+00 0.000000000000000000e+00 1.250000000000000000e+00 2.165063619613647461e+00 0.000000000000000000e+00 0.000000000000000000e+00 0.000000000000000000e+00 3.000000000000000000e+01
2.467999935150146484e+00 0.000000000000000000e+00 0.000000000000000000e+00 1.233999967575073242e+00 2.137350797653198242e+00 0.000000000000000000e+00 0.000000000000000000e+00 0.000000000000000000e+00 3.000000000000000000e+01
2.551000118255615234e+00 0.000000000000000000e+00 0.000000000000000000e+00 1.275500059127807617e+00 2.209230899810791016e+00 0.000000000000000000e+00 0.000000000000000000e+00 0.000000000000000000e+00 3.000000000000000000e+01
2.571000099182128906e+00 0.000000000000000000e+00 0.000000000000000000e+00 1.285500049591064453e+00 2.226551294326782227e+00 0.000000000000000000e+00 0.000000000000000000e+00 0.000000000000000000e+00 3.000000000000000000e+01
2.403000116348266602e+00 0.000000000000000000e+00 0.000000000000000000e+00 1.201500058174133301e+00 2.081058979034423828e+00 0.000000000000000000e+00 0.000000000000000000e+00 0.000000000000000000e+00 3.000000000000000000e+01
2.552999973297119141e+00 0.000000000000000000e+00 0.000000000000000000e+00 1.276499986648559570e+00 2.210962772369384766e+00 0.000000000000000000e+00 0.000000000000000000e+00 0.000000000000000000e+00 3.000000000000000000e+01
2.482000112533569336e+00 0.000000000000000000e+00 0.000000000000000000e+00 1.241000056266784668e+00 2.149475097656250000e+00 0.000000000000000000e+00 0.000000000000000000e+00 0.000000000000000000e+00 3.000000000000000000e+01
2.582999944686889648e+00 0.000000000000000000e+00 0.000000000000000000e+00 1.291499972343444824e+00 2.236943721771240234e+00 0.000000000000000000e+00 0.000000000000000000e+00 0.000000000000000000e+00 3.000000000000000000e+01
2.540999889373779297e+00 0.000000000000000000e+00 0.000000000000000000e+00 1.270499944686889648e+00 2.200570583343505859e+00 0.000000000000000000e+00 0.000000000000000000e+00 0.000000000000000000e+00 3.000000000000000000e+01
2.509999990463256836e+00 0.000000000000000000e+00 0.000000000000000000e+00 1.254999995231628418e+00 2.173723697662353516e+00 0.000000000000000000e+00 0.000000000000000000e+00 0.000000000000000000e+00 3.000000000000000000e+01
2.499000072479248047e+00 0.000000000000000000e+00 0.000000000000000000e+00 1.249500036239624023e+00 2.164197444915771484e+00 0.000000000000000000e+00 0.000000000000000000e+00 0.000000000000000000e+00 3.000000000000000000e+01
2.437000036239624023e+00 0.000000000000000000e+00 0.000000000000000000e+00 1.218500018119812012e+00 2.110503911972045898e+00 0.000000000000000000e+00 0.000000000000000000e+00 0.000000000000000000e+00 3.000000000000000000e+01
2.440999984741210938e+00 0.000000000000000000e+00 0.000000000000000000e+00 1.220499992370605469e+00 2.113967895507812500e+00 0.000000000000000000e+00 0.000000000000000000e+00 0.000000000000000000e+00 3.000000000000000000e+01
2.440000057220458984e+00 0.000000000000000000e+00 0.000000000000000000e+00 1.220000028610229492e+00 2.113101959228515625e+00 0.000000000000000000e+00 0.000000000000000000e+00 0.000000000000000000e+00 3.000000000000000000e+01
2.391000032424926758e+00 0.000000000000000000e+00 0.000000000000000000e+00 1.195500016212463379e+00 2.070666790008544922e+00 0.000000000000000000e+00 0.000000000000000000e+00 0.000000000000000000e+00 3.000000000000000000e+01
2.480999946594238281e+00 0.000000000000000000e+00 0.000000000000000000e+00 1.240499973297119141e+00 2.148608922958374023e+00 0.000000000000000000e+00 0.000000000000000000e+00 0.000000000000000000e+00 3.000000000000000000e+01
2.441999912261962891e+00 0.000000000000000000e+00 0.000000000000000000e+00 1.220999956130981445e+00 2.114834070205688477e+00 0.000000000000000000e+00 0.000000000000000000e+00 0.000000000000000000e+00 3.000000000000000000e+01
2.464999914169311523e+00 0.000000000000000000e+00 0.000000000000000000e+00 1.232499957084655762e+00 2.134752511978149414e+00 0.000000000000000000e+00 0.000000000000000000e+00 0.000000000000000000e+00 3.000000000000000000e+01
2.457000017166137695e+00 0.000000000000000000e+00 0.000000000000000000e+00 1.228500008583068848e+00 2.127824306488037109e+00 0.000000000000000000e+00 0.000000000000000000e+00 0.000000000000000000e+00 3.000000000000000000e+01
2.414000034332275391e+00 0.000000000000000000e+00 0.000000000000000000e+00 1.207000017166137695e+00 2.090585231781005859e+00 0.000000000000000000e+00 0.000000000000000000e+00 0.000000000000000000e+00 3.000000000000000000e+01
2.476999998092651367e+00 0.000000000000000000e+00 0.000000000000000000e+00 1.238499999046325684e+00 2.145144939422607422e+00 0.000000000000000000e+00 0.000000000000000000e+00 0.000000000000000000e+00 3.000000000000000000e+01
2.417000055313110352e+00 0.000000000000000000e+00 0.000000000000000000e+00 1.208500027656555176e+00 2.093183517456054688e+00 0.000000000000000000e+00 0.000000000000000000e+00 0.000000000000000000e+00 3.000000000000000000e+01
2.448999881744384766e+00 0.000000000000000000e+00 0.000000000000000000e+00 1.224499940872192383e+00 2.120896100997924805e+00 0.000000000000000000e+00 0.000000000000000000e+00 0.000000000000000000e+00 3.000000000000000000e+01
2.463999986648559570e+00 0.000000000000000000e+00 0.000000000000000000e+00 1.231999993324279785e+00 2.133886575698852539e+00 0.000000000000000000e+00 0.000000000000000000e+00 0.000000000000000000e+00 3.000000000000000000e+01
2.413000106811523438e+00 0.000000000000000000e+00 0.000000000000000000e+00 1.206500053405761719e+00 2.089719295501708984e+00 0.000000000000000000e+00 0.000000000000000000e+00 0.000000000000000000e+00 3.000000000000000000e+01
2.539000034332275391e+00 0.000000000000000000e+00 0.000000000000000000e+00 1.269500017166137695e+00 2.198838472366333008e+00 0.000000000000000000e+00 0.000000000000000000e+00 0.000000000000000000e+00 3.000000000000000000e+01
2.384999990463256836e+00 0.000000000000000000e+00 0.000000000000000000e+00 1.192499995231628418e+00 2.065470695495605469e+00 0.000000000000000000e+00 0.000000000000000000e+00 0.000000000000000000e+00 3.000000000000000000e+01
2.394999980926513672e+00 0.000000000000000000e+00 0.000000000000000000e+00 1.197499990463256836e+00 2.074130773544311523e+00 0.000000000000000000e+00 0.000000000000000000e+00 0.000000000000000000e+00 3.000000000000000000e+01
2.502000093460083008e+00 0.000000000000000000e+00 0.000000000000000000e+00 1.251000046730041504e+00 2.166795492172241211e+00 0.000000000000000000e+00 0.000000000000000000e+00 0.000000000000000000e+00 3.000000000000000000e+01
2.477999925613403320e+00 0.000000000000000000e+00 0.000000000000000000e+00 1.238999962806701660e+00 2.146010875701904297e+00 0.000000000000000000e+00 0.000000000000000000e+00 0.000000000000000000e+00 3.000000000000000000e+01
2.507999897003173828e+00 0.000000000000000000e+00 0.000000000000000000e+00 1.253999948501586914e+00 2.171991825103759766e+00 0.000000000000000000e+00 0.000000000000000000e+00 0.000000000000000000e+00 3.000000000000000000e+01
2.530999898910522461e+00 0.000000000000000000e+00 0.000000000000000000e+00 1.265499949455261230e+00 2.191910266876220703e+00 0.000000000000000000e+00 0.000000000000000000e+00 0.000000000000000000e+00 3.000000000000000000e+01
2.572999954223632812e+00 0.000000000000000000e+00 0.000000000000000000e+00 1.286499977111816406e+00 2.228283405303955078e+00 0.000000000000000000e+00 0.000000000000000000e+00 0.000000000000000000e+00 3.000000000000000000e+01
2.451999902725219727e+00 0.000000000000000000e+00 0.000000000000000000e+00 1.225999951362609863e+00 2.123494386672973633e+00 0.000000000000000000e+00 0.000000000000000000e+00 0.000000000000000000e+00 3.000000000000000000e+01
2.411999940872192383e+00 0.000000000000000000e+00 0.000000000000000000e+00 1.205999970436096191e+00 2.088853359222412109e+00 0.000000000000000000e+00 0.000000000000000000e+00 0.000000000000000000e+00 3.000000000000000000e+01
2.434000015258789062e+00 0.000000000000000000e+00 0.000000000000000000e+00 1.217000007629394531e+00 2.107905864715576172e+00 0.000000000000000000e+00 0.000000000000000000e+00 0.000000000000000000e+00 3.000000000000000000e+01
2.443000078201293945e+00 0.000000000000000000e+00 0.000000000000000000e+00 1.221500039100646973e+00 2.115700006484985352e+00 0.000000000000000000e+00 0.000000000000000000e+00 0.000000000000000000e+00 3.000000000000000000e+01
2.483999967575073242e+00 0.000000000000000000e+00 0.000000000000000000e+00 1.241999983787536621e+00 2.151207208633422852e+00 0.000000000000000000e+00 0.000000000000000000e+00 0.000000000000000000e+00 3.000000000000000000e+01
2.476000070571899414e+00 0.000000000000000000e+00 0.000000000000000000e+00 1.238000035285949707e+00 2.144279003143310547e+00 0.000000000000000000e+00 0.000000000000000000e+00 0.000000000000000000e+00 3.000000000000000000e+01
2.447000026702880859e+00 0.000000000000000000e+00 0.000000000000000000e+00 1.223500013351440430e+00 2.119164228439331055e+00 0.000000000000000000e+00 0.000000000000000000e+00 0.000000000000000000e+00 3.000000000000000000e+01
2.525000095367431641e+00 0.000000000000000000e+00 0.000000000000000000e+00 1.262500047683715820e+00 2.186714172363281250e+00 0.000000000000000000e+00 0.000000000000000000e+00 0.000000000000000000e+00 3.000000000000000000e+01
2.460000038146972656e+00 0.000000000000000000e+00 0.000000000000000000e+00 1.230000019073486328e+00 2.130422592163085938e+00 0.000000000000000000e+00 0.000000000000000000e+00 0.000000000000000000e+00 3.000000000000000000e+01
2.575000047683715820e+00 0.000000000000000000e+00 0.000000000000000000e+00 1.287500023841857910e+00 2.230015516281127930e+00 0.000000000000000000e+00 0.000000000000000000e+00 0.000000000000000000e+00 3.000000000000000000e+01
2.586999893188476562e+00 0.000000000000000000e+00 0.000000000000000000e+00 1.293499946594238281e+00 2.240407705307006836e+00 0.000000000000000000e+00 0.000000000000000000e+00 0.000000000000000000e+00 3.000000000000000000e+01
2.418999910354614258e+00 0.000000000000000000e+00 0.000000000000000000e+00 1.209499955177307129e+00 2.094915390014648438e+00 0.000000000000000000e+00 0.000000000000000000e+00 0.000000000000000000e+00 3.000000000000000000e+01
2.535000085830688477e+00 0.000000000000000000e+00 0.000000000000000000e+00 1.267500042915344238e+00 2.195374488830566406e+00 0.000000000000000000e+00 0.000000000000000000e+00 0.000000000000000000e+00 3.000000000000000000e+01
2.407000064849853516e+00 0.000000000000000000e+00 0.000000000000000000e+00 1.203500032424926758e+00 2.084523200988769531e+00 0.000000000000000000e+00 0.000000000000000000e+00 0.000000000000000000e+00 3.000000000000000000e+01
2.431999921798706055e+00 0.000000000000000000e+00 0.000000000000000000e+00 1.215999960899353027e+00 2.106173753738403320e+00 0.000000000000000000e+00 0.000000000000000000e+00 0.000000000000000000e+00 3.000000000000000000e+01
2.556999921798706055e+00 0.000000000000000000e+00 0.000000000000000000e+00 1.278499960899353027e+00 2.214426994323730469e+00 0.000000000000000000e+00 0.000000000000000000e+00 0.000000000000000000e+00 3.000000000000000000e+01
2.433000087738037109e+00 0.000000000000000000e+00 0.000000000000000000e+00 1.216500043869018555e+00 2.107039690017700195e+00 0.000000000000000000e+00 0.000000000000000000e+00 0.000000000000000000e+00 3.000000000000000000e+01
2.487999916076660156e+00 0.000000000000000000e+00 0.000000000000000000e+00 1.243999958038330078e+00 2.154671192169189453e+00 0.000000000000000000e+00 0.000000000000000000e+00 0.000000000000000000e+00 3.000000000000000000e+01
2.526999950408935547e+00 0.000000000000000000e+00 0.000000000000000000e+00 1.263499975204467773e+00 2.188446283340454102e+00 0.000000000000000000e+00 0.000000000000000000e+00 0.000000000000000000e+00 3.000000000000000000e+01
2.486999988555908203e+00 0.000000000000000000e+00 0.000000000000000000e+00 1.243499994277954102e+00 2.153805255889892578e+00 0.000000000000000000e+00 0.000000000000000000e+00 0.000000000000000000e+00 3.000000000000000000e+01
2.532999992370605469e+00 0.000000000000000000e+00 0.000000000000000000e+00 1.266499996185302734e+00 2.193642377853393555e+00 0.000000000000000000e+00 0.000000000000000000e+00 0.000000000000000000e+00 3.000000000000000000e+01
2.410000085830688477e+00 0.000000000000000000e+00 0.000000000000000000e+00 1.205000042915344238e+00 2.087121248245239258e+00 0.000000000000000000e+00 0.000000000000000000e+00 0.000000000000000000e+00 3.000000000000000000e+01
2.523000001907348633e+00 0.000000000000000000e+00 0.000000000000000000e+00 1.261500000953674316e+00 2.184982061386108398e+00 0.000000000000000000e+00 0.000000000000000000e+00 0.000000000000000000e+00 3.000000000000000000e+01
2.493999958038330078e+00 0.000000000000000000e+00 0.000000000000000000e+00 1.246999979019165039e+00 2.159867286682128906e+00 0.000000000000000000e+00 0.000000000000000000e+00 0.000000000000000000e+00 3.000000000000000000e+01
2.506000041961669922e+00 0.000000000000000000e+00 0.000000000000000000e+00 1.253000020980834961e+00 2.170259714126586914e+00 0.000000000000000000e+00 0.000000000000000000e+00 0.000000000000000000e+00 3.000000000000000000e+01
2.496000051498413086e+00 0.000000000000000000e+00 0.000000000000000000e+00 1.248000025749206543e+00 2.161599397659301758e+00 0.000000000000000000e+00 0.000000000000000000e+00 0.000000000000000000e+00 3.000000000000000000e+01
2.365000009536743164e+00 0.000000000000000000e+00 0.000000000000000000e+00 1.182500004768371582e+00 2.048150062561035156e+00 0.000000000000000000e+00 0.000000000000000000e+00 0.000000000000000000e+00 3.000000000000000000e+01
2.346999883651733398e+00 0.000000000000000000e+00 0.000000000000000000e+00 1.173499941825866699e+00 2.032561540603637695e+00 0.000000000000000000e+00 0.000000000000000000e+00 0.000000000000000000e+00 3.000000000000000000e+01
2.519000053405761719e+00 0.000000000000000000e+00 0.000000000000000000e+00 1.259500026702880859e+00 2.181518077850341797e+00 0.000000000000000000e+00 0.000000000000000000e+00 0.000000000000000000e+00 3.000000000000000000e+01
2.463000059127807617e+00 0.000000000000000000e+00 0.000000000000000000e+00 1.231500029563903809e+00 2.133020639419555664e+00 0.000000000000000000e+00 0.000000000000000000e+00 0.000000000000000000e+00 3.000000000000000000e+01
2.467000007629394531e+00 0.000000000000000000e+00 0.000000000000000000e+00 1.233500003814697266e+00 2.136484622955322266e+00 0.000000000000000000e+00 0.000000000000000000e+00 0.000000000000000000e+00 3.000000000000000000e+01
2.434999942779541016e+00 0.000000000000000000e+00 0.000000000000000000e+00 1.217499971389770508e+00 2.108771800994873047e+00 0.000000000000000000e+00 0.000000000000000000e+00 0.000000000000000000e+00 3.000000000000000000e+01
2.401000022888183594e+00 0.000000000000000000e+00 0.000000000000000000e+00 1.200500011444091797e+00 2.079327106475830078e+00 0.000000000000000000e+00 0.000000000000000000e+00 0.000000000000000000e+00 3.000000000000000000e+01
2.529000043869018555e+00 0.000000000000000000e+00 0.000000000000000000e+00 1.264500021934509277e+00 2.190178155899047852e+00 0.000000000000000000e+00 0.000000000000000000e+00 0.000000000000000000e+00 3.000000000000000000e+01
2.444999933242797852e+00 0.000000000000000000e+00 0.000000000000000000e+00 1.222499966621398926e+00 2.117432117462158203e+00 0.000000000000000000e+00 0.000000000000000000e+00 0.000000000000000000e+00 3.000000000000000000e+01
2.546999931335449219e+00 0.000000000000000000e+00 0.000000000000000000e+00 1.273499965667724609e+00 2.205766677856445312e+00 0.000000000000000000e+00 0.000000000000000000e+00 0.000000000000000000e+00 3.000000000000000000e+01
2.542999982833862305e+00 0.000000000000000000e+00 0.000000000000000000e+00 1.271499991416931152e+00 2.202302694320678711e+00 0.000000000000000000e+00 0.000000000000000000e+00 0.000000000000000000e+00 3.000000000000000000e+01
2.581000089645385742e+00 0.000000000000000000e+00 0.000000000000000000e+00 1.290500044822692871e+00 2.235211610794067383e+00 0.000000000000000000e+00 0.000000000000000000e+00 0.000000000000000000e+00 3.000000000000000000e+01
2.457999944686889648e+00 0.000000000000000000e+00 0.000000000000000000e+00 1.228999972343444824e+00 2.128690481185913086e+00 0.000000000000000000e+00 0.000000000000000000e+00 0.000000000000000000e+00 3.000000000000000000e+01
2.437999963760375977e+00 0.000000000000000000e+00 0.000000000000000000e+00 1.218999981880187988e+00 2.111369848251342773e+00 0.000000000000000000e+00 0.000000000000000000e+00 0.000000000000000000e+00 3.000000000000000000e+01
2.423000097274780273e+00 0.000000000000000000e+00 0.000000000000000000e+00 1.211500048637390137e+00 2.098379611968994141e+00 0.000000000000000000e+00 0.000000000000000000e+00 0.000000000000000000e+00 3.000000000000000000e+01
2.358999967575073242e+00 0.000000000000000000e+00 0.000000000000000000e+00 1.179499983787536621e+00 2.042953968048095703e+00 0.000000000000000000e+00 0.000000000000000000e+00 0.000000000000000000e+00 3.000000000000000000e+01
2.444000005722045898e+00 0.000000000000000000e+00 0.000000000000000000e+00 1.222000002861022949e+00 2.116566181182861328e+00 0.000000000000000000e+00 0.000000000000000000e+00 0.000000000000000000e+00 3.000000000000000000e+01
2.500999927520751953e+00 0.000000000000000000e+00 0.000000000000000000e+00 1.250499963760375977e+00 2.165929555892944336e+00 0.000000000000000000e+00 0.000000000000000000e+00 0.000000000000000000e+00 3.000000000000000000e+01
2.357000112533569336e+00 0.000000000000000000e+00 0.000000000000000000e+00 1.178500056266784668e+00 2.041221857070922852e+00 0.000000000000000000e+00 0.000000000000000000e+00 0.000000000000000000e+00 3.000000000000000000e+01
2.519999980926513672e+00 0.000000000000000000e+00 0.000000000000000000e+00 1.259999990463256836e+00 2.182384014129638672e+00 0.000000000000000000e+00 0.000000000000000000e+00 0.000000000000000000e+00 3.000000000000000000e+01
2.513000011444091797e+00 0.000000000000000000e+00 0.000000000000000000e+00 1.256500005722045898e+00 2.176321744918823242e+00 0.000000000000000000e+00 0.000000000000000000e+00 0.000000000000000000e+00 3.000000000000000000e+01
2.382999897003173828e+00 0.000000000000000000e+00 0.000000000000000000e+00 1.191499948501586914e+00 2.063738584518432617e+00 0.000000000000000000e+00 0.000000000000000000e+00 0.000000000000000000e+00 3.000000000000000000e+01
2.555000066757202148e+00 0.000000000000000000e+00 0.000000000000000000e+00 1.277500033378601074e+00 2.212694883346557617e+00 0.000000000000000000e+00 0.000000000000000000e+00 0.000000000000000000e+00 3.000000000000000000e+01
2.461999893188476562e+00 0.000000000000000000e+00 0.000000000000000000e+00 1.230999946594238281e+00 2.132154464721679688e+00 0.000000000000000000e+00 0.000000000000000000e+00 0.000000000000000000e+00 3.000000000000000000e+01
2.460999965667724609e+00 0.000000000000000000e+00 0.000000000000000000e+00 1.230499982833862305e+00 2.131288528442382812e+00 0.000000000000000000e+00 0.000000000000000000e+00 0.000000000000000000e+00 3.000000000000000000e+01
2.520999908447265625e+00 0.000000000000000000e+00 0.000000000000000000e+00 1.260499954223632812e+00 2.183249950408935547e+00 0.000000000000000000e+00 0.000000000000000000e+00 0.000000000000000000e+00 3.000000000000000000e+01
2.430999994277954102e+00 0.000000000000000000e+00 0.000000000000000000e+00 1.215499997138977051e+00 2.105307817459106445e+00 0.000000000000000000e+00 0.000000000000000000e+00 0.000000000000000000e+00 3.000000000000000000e+01
2.381000041961669922e+00 0.000000000000000000e+00 0.000000000000000000e+00 1.190500020980834961e+00 2.062006473541259766e+00 0.000000000000000000e+00 0.000000000000000000e+00 0.000000000000000000e+00 3.000000000000000000e+01
2.447999954223632812e+00 0.000000000000000000e+00 0.000000000000000000e+00 1.223999977111816406e+00 2.120030164718627930e+00 0.000000000000000000e+00 0.000000000000000000e+00 0.000000000000000000e+00 3.000000000000000000e+01