0.000000000000000000e+00 0.000000000000000000e+00 3.000000000000000000e+00 1.281499981880187988e+00 7.398743629455566406e-01 3.000000000000000000e+00
0.000000000000000000e+00 0.000000000000000000e+00 3.000000000000000000e+00 1.228000044822692871e+00 7.089861035346984863e-01 3.000000000000000000e+00
0.000000000000000000e+00 0.000000000000000000e+00 3.000000000000000000e+00 1.213000059127807617e+00 7.003259062767028809e-01 3.000000000000000000e+00
0.000000000000000000e+00 0.000000000000000000e+00 3.000000000000000000e+00 1.225000023841857910e+00 7.072540521621704102e-01 3.000000000000000000e+00
0.000000000000000000e+00 0.000000000000000000e+00 3.000000000000000000e+00 1.225499987602233887e+00 7.075427770614624023e-01 3.000000000000000000e+00
0.000000000000000000e+00 0.000000000000000000e+00 3.000000000000000000e+00 1.268499970436096191e+00 7.323688268661499023e-01 3.000000000000000000e+00
0.000000000000000000e+00 0.000000000000000000e+00 3.000000000000000000e+00 1.294499993324279785e+00 7.473798990249633789e-01 3.000000000000000000e+00
0.000000000000000000e+00 0.000000000000000000e+00 3.000000000000000000e+00 1.210000038146972656e+00 6.985938549041748047e-01 3.000000000000000000e+00
0.000000000000000000e+00 0.000000000000000000e+00 3.000000000000000000e+00 1.258000016212463379e+00 7.263066172599792480e-01 3.000000000000000000e+00
0.000000000000000000e+00 0.000000000000000000e+00 3.000000000000000000e+00 1.226500034332275391e+00 7.081201076507568359e-01 3.000000000000000000e+00
0.000000000000000000e+00 0.000000000000000000e+00 3.000000000000000000e+00 1.212499976158142090e+00 7.000371813774108887e-01 3.000000000000000000e+00
0.000000000000000000e+00 0.000000000000000000e+00 3.000000000000000000e+00 1.187500000000000000e+00 6.856034398078918457e-01 3.000000000000000000e+00
0.000000000000000000e+00 0.000000000000000000e+00 3.000000000000000000e+00 1.177500009536743164e+00 6.798299551010131836e-01 3.000000000000000000e+00
0.000000000000000000e+00 0.000000000000000000e+00 3.000000000000000000e+00 1.218000054359436035e+00 7.032126188278198242e-01 3.000000000000000000e+00
0.000000000000000000e+00 0.000000000000000000e+00 3.000000000000000000e+00 1.215000033378601074e+00 7.014805674552917480e-01 3.000000000000000000e+00
0.000000000000000000e+00 0.000000000000000000e+00 3.000000000000000000e+00 1.235999941825866699e+00 7.136049270629882812e-01 3.000000000000000000e+00
0.000000000000000000e+00 0.000000000000000000e+00 3.000000000000000000e+00 1.229500055313110352e+00 7.098521590232849121e-01 3.000000000000000000e+00
0.000000000000000000e+00 0.000000000000000000e+00 3.000000000000000000e+00 1.188500046730041504e+00 6.861807703971862793e-01 3.000000000000000000e+00
0.000000000000000000e+00 0.000000000000000000e+00 3.000000000000000000e+00 1.170500040054321289e+00 6.757884621620178223e-01 3.000000000000000000e+00
0.000000000000000000e+00 0.000000000000000000e+00 3.000000000000000000e+00 1.176499962806701660e+00 6.792525649070739746e-01 3.000000000000000000e+00
0.000000000000000000e+00 0.000000000000000000e+00 3.000000000000000000e+00 1.180500030517578125e+00 6.815620064735412598e-01 3.000000000000000000e+00
0.000000000000000000e+00 0.000000000000000000e+00 3.000000000000000000e+00 1.233000040054321289e+00 7.118728756904602051e-01 3.000000000000000000e+00
0.000000000000000000e+00 0.000000000000000000e+00 3.000000000000000000e+00 1.289499998092651367e+00 7.444931864738464355e-01 3.000000000000000000e+00
0.000000000000000000e+00 0.000000000000000000e+00 3.000000000000000000e+00 1.171499967575073242e+00 6.763658523559570312e-01 3.000000000000000000e+00
0.000000000000000000e+00 0.000000000000000000e+00 3.000000000000000000e+00 1.194499969482421875e+00 6.896448731422424316e-01 3.000000000000000000e+00
0.000000000000000000e+00 0.000000000000000000e+00 3.000000000000000000e+00 1.246000051498413086e+00 7.193784117698669434e-01 3.000000000000000000e+00
0.000000000000000000e+00 0.000000000000000000e+00 3.000000000000000000e+00 1.272500038146972656e+00 7.346782088279724121e-01 3.000000000000000000e+00
0.000000000000000000e+00 0.000000000000000000e+00 3.000000000000000000e+00 1.223000049591064453e+00 7.060993909835815430e-01 3.000000000000000000e+00
0.000000000000000000e+00 0.000000000000000000e+00 3.000000000000000000e+00 1.240000009536743164e+00 7.159143090248107910e-01 3.000000000000000000e+00
0.000000000000000000e+00 0.000000000000000000e+00 3.000000000000000000e+00 1.185500025749206543e+00 6.844487190246582031e-01 3.000000000000000000e+00
0.000000000000000000e+00 0.000000000000000000e+00 3.000000000000000000e+00 1.208999991416931152e+00 6.980164647102355957e-01 3.000000000000000000e+00
0.000000000000000000e+00 0.000000000000000000e+00 3.000000000000000000e+00 1.210999965667724609e+00 6.991711854934692383e-01 3.000000000000000000e+00
0.000000000000000000e+00 0.000000000000000000e+00 3.000000000000000000e+00 1.284500002861022949e+00 7.416064143180847168e-01 3.000000000000000000e+00
0.000000000000000000e+00 0.000000000000000000e+00 3.000000000000000000e+00 1.292500019073486328e+00 7.462252378463745117e-01 3.000000000000000000e+00
0.000000000000000000e+00 0.000000000000000000e+00 3.000000000000000000e+00 1.251999974250793457e+00 7.228425145149230957e-01 3.000000000000000000e+00
0.000000000000000000e+00 0.000000000000000000e+00 3.000000000000000000e+00 1.258999943733215332e+00 7.268840074539184570e-01 3.000000000000000000e+00
0.000000000000000000e+00 0.000000000000000000e+00 3.000000000000000000e+00 1.288499951362609863e+00 7.439157962799072266e-01 3.000000000000000000e+00
0.000000000000000000e+00 0.000000000000000000e+00 3.000000000000000000e+00 1.174499988555908203e+00 6.780979037284851074e-01 3.000000000000000000e+00
0.000000000000000000e+00 0.000000000000000000e+00 3.000000000000000000e+00 1.226999998092651367e+00 7.084087729454040527e-01 3.000000000000000000e+00
0.000000000000000000e+00 0.000000000000000000e+00 3.000000000000000000e+00 1.236500024795532227e+00 7.138935923576354980e-01 3.000000000000000000e+00
0.000000000000000000e+00 0.000000000000000000e+00 3.000000000000000000e+00 1.241500020027160645e+00 7.167803645133972168e-01 3.000000000000000000e+00
0.000000000000000000e+00 0.000000000000000000e+00 3.000000000000000000e+00 1.257500052452087402e+00 7.260179519653320312e-01 3.000000000000000000e+00
0.000000000000000000e+00 0.000000000000000000e+00 3.000000000000000000e+00 1.245499968528747559e+00 7.190897464752197266e-01 3.000000000000000000e+00
0.000000000000000000e+00 0.000000000000000000e+00 3.000000000000000000e+00 1.213999986648559570e+00 7.009032368659973145e-01 3.000000000000000000e+00
0.000000000000000000e+00 0.000000000000000000e+00 3.000000000000000000e+00 1.244500041007995605e+00 7.185124158859252930e-01 3.000000000000000000e+00
0.000000000000000000e+00 0.000000000000000000e+00 3.000000000000000000e+00 1.250000000000000000e+00 7.216878533363342285e-01 3.000000000000000000e+00
0.000000000000000000e+00 0.000000000000000000e+00 3.000000000000000000e+00 1.233999967575073242e+00 7.124502062797546387e-01 3.000000000000000000e+00
0.000000000000000000e+00 0.000000000000000000e+00 3.000000000000000000e+00 1.275500059127807617e+00 7.364102602005004883e-01 3.000000000000000000e+00
0.000000000000000000e+00 0.000000000000000000e+00 3.000000000000000000e+00 1.285500049591064453e+00 7.421837449073791504e-01 3.000000000000000000e+00
0.000000000000000000e+00 0.000000000000000000e+00 3.000000000000000000e+00 1.201500058174133301e+00 6.936863660812377930e-01 3.000000000000000000e+00
0.000000000000000000e+00 0.000000000000000000e+00 3.000000000000000000e+00 1.276499986648559570e+00 7.369875907897949219e-01 3.000000000000000000e+00
0.000000000000000000e+00 0.000000000000000000e+00 3.000000000000000000e+00 1.241000056266784668e+00 7.164916992187500000e-01 3.000000000000000000e+00
0.000000000000000000e+00 0.000000000000000000e+00 3.000000000000000000e+00 1.291499972343444824e+00 7.456478476524353027e-01 3.000000000000000000e+00
0.000000000000000000e+00 0.000000000000000000e+00 3.000000000000000000e+00 1.270499944686889648e+00 7.335235476493835449e-01 3.000000000000000000e+00
0.000000000000000000e+00 0.000000000000000000e+00 3.000000000000000000e+00 1.254999995231628418e+00 7.245745658874511719e-01 3.000000000000000000e+00
0.000000000000000000e+00 0.000000000000000000e+00 3.000000000000000000e+00 1.249500036239624023e+00 7.213991880416870117e-01 3.000000000000000000e+00
0.000000000000000000e+00 0.000000000000000000e+00 3.000000000000000000e+00 1.218500018119812012e+00 7.035012841224670410e-01 3.000000000000000000e+00
0.000000000000000000e+00 0.000000000000000000e+00 3.000000000000000000e+00 1.220499992370605469e+00 7.046560049057006836e-01 3.000000000000000000e+00
0.000000000000000000e+00 0.000000000000000000e+00 3.000000000000000000e+00 1.220000028610229492e+00 7.043673396110534668e-01 3.000000000000000000e+00
0.000000000000000000e+00 0.000000000000000000e+00 3.000000000000000000e+00 1.195500016212463379e+00 6.902222633361816406e-01 3.000000000000000000e+00
0.000000000000000000e+00 0.000000000000000000e+00 3.000000000000000000e+00 1.240499973297119141e+00 7.162030339241027832e-01 3.000000000000000000e+00
0.000000000000000000e+00 0.000000000000000000e+00 3.000000000000000000e+00 1.220999956130981445e+00 7.049446702003479004e-01 3.000000000000000000e+00
0.000000000000000000e+00 0.000000000000000000e+00 3.000000000000000000e+00 1.232499957084655762e+00 7.115842103958129883e-01 3.000000000000000000e+00
0.000000000000000000e+00 0.000000000000000000e+00 3.000000000000000000e+00 1.228500008583068848e+00 7.092748284339904785e-01 3.000000000000000000e+00
0.000000000000000000e+00 0.000000000000000000e+00 3.000000000000000000e+00 1.207000017166137695e+00 6.968617439270019531e-01 3.000000000000000000e+00
0.000000000000000000e+00 0.000000000000000000e+00 3.000000000000000000e+00 1.238499999046325684e+00 7.150483131408691406e-01 3.000000000000000000e+00
0.000000000000000000e+00 0.000000000000000000e+00 3.000000000000000000e+00 1.208500027656555176e+00 6.977277994155883789e-01 3.000000000000000000e+00
0.000000000000000000e+00 0.000000000000000000e+00 3.000000000000000000e+00 1.224499940872192383e+00 7.069653868675231934e-01 3.000000000000000000e+00
0.000000000000000000e+00 0.000000000000000000e+00 3.000000000000000000e+00 1.231999993324279785e+00 7.112955451011657715e-01 3.000000000000000000e+00
0.000000000000000000e+00 0.000000000000000000e+00 3.000000000000000000e+00 1.206500053405761719e+00 6.965730786323547363e-01 3.000000000000000000e+00
0.000000000000000000e+00 0.000000000000000000e+00 3.000000000000000000e+00 1.269500017166137695e+00 7.329461574554443359e-01 3.000000000000000000e+00
0.000000000000000000e+00 0.000000000000000000e+00 3.000000000000000000e+00 1.192499995231628418e+00 6.884902119636535645e-01 3.000000000000000000e+00
0.000000000000000000e+00 0.000000000000000000e+00 3.000000000000000000e+00 1.197499990463256836e+00 6.913769245147705078e-01 3.000000000000000000e+00
0.000000000000000000e+00 0.000000000000000000e+00 3.000000000000000000e+00 1.251000046730041504e+00 7.222651839256286621e-01 3.000000000000000000e+00
0.000000000000000000e+00 0.000000000000000000e+00 3.000000000000000000e+00 1.238999962806701660e+00 7.153369784355163574e-01 3.000000000000000000e+00
0.000000000000000000e+00 0.000000000000000000e+00 3.000000000000000000e+00 1.253999948501586914e+00 7.239972352981567383e-01 3.000000000000000000e+00
0.000000000000000000e+00 0.000000000000000000e+00 3.000000000000000000e+00 1.265499949455261230e+00 7.306367754936218262e-01 3.000000000000000000e+00
0.000000000000000000e+00 0.000000000000000000e+00 3.000000000000000000e+00 1.286499977111816406e+00 7.427611351013183594e-01 3.000000000000000000e+00
0.000000000000000000e+00 0.000000000000000000e+00 3.000000000000000000e+00 1.225999951362609863e+00 7.078314423561096191e-01 3.000000000000000000e+00
0.000000000000000000e+00 0.000000000000000000e+00 3.000000000000000000e+00 1.205999970436096191e+00 6.962844133377075195e-01 3.000000000000000000e+00
0.000000000000000000e+00 0.000000000000000000e+00 3.000000000000000000e+00 1.217000007629394531e+00 7.026352882385253906e-01 3.000000000000000000e+00
0.000000000000000000e+00 0.000000000000000000e+00 3.000000000000000000e+00 1.221500039100646973e+00 7.052333354949951172e-01 3.000000000000000000e+00
0.000000000000000000e+00 0.000000000000000000e+00 3.000000000000000000e+00 1.241999983787536621e+00 7.170690298080444336e-01 3.000000000000000000e+00
0.000000000000000000e+00 0.000000000000000000e+00 3.000000000000000000e+00 1.238000035285949707e+00 7.147596478462219238e-01 3.000000000000000000e+00
0.000000000000000000e+00 0.000000000000000000e+00 3.000000000000000000e+00 1.223500013351440430e+00 7.063880562782287598e-01 3.000000000000000000e+00
0.000000000000000000e+00 0.000000000000000000e+00 3.000000000000000000e+00 1.262500047683715820e+00 7.289047241210937500e-01 3.000000000000000000e+00
0.000000000000000000e+00 0.000000000000000000e+00 3.000000000000000000e+00 1.230000019073486328e+00 7.101408243179321289e-01 3.000000000000000000e+00
0.000000000000000000e+00 0.000000000000000000e+00 3.000000000000000000e+00 1.287500023841857910e+00 7.433384656906127930e-01 3.000000000000000000e+00
0.000000000000000000e+00 0.000000000000000000e+00 3.000000000000000000e+00 1.293499946594238281e+00 7.468025684356689453e-01 3.000000000000000000e+00
0.000000000000000000e+00 0.000000000000000000e+00 3.000000000000000000e+00 1.209499955177307129e+00 6.983051300048828125e-01 3.000000000000000000e+00
0.000000000000000000e+00 0.000000000000000000e+00 3.000000000000000000e+00 1.267500042915344238e+00 7.317914962768554688e-01 3.000000000000000000e+00
0.000000000000000000e+00 0.000000000000000000e+00 3.000000000000000000e+00 1.203500032424926758e+00 6.948410272598266602e-01 3.000000000000000000e+00
0.000000000000000000e+00 0.000000000000000000e+00 3.000000000000000000e+00 1.215999960899353027e+00 7.020579576492309570e-01 3.000000000000000000e+00
0.000000000000000000e+00 0.000000000000000000e+00 3.000000000000000000e+00 1.278499960899353027e+00 7.381423115730285645e-01 3.000000000000000000e+00
0.000000000000000000e+00 0.000000000000000000e+00 3.000000000000000000e+00 1.216500043869018555e+00 7.023466229438781738e-01 3.000000000000000000e+00
0.000000000000000000e+00 0.000000000000000000e+00 3.000000000000000000e+00 1.243999958038330078e+00 7.182237505912780762e-01 3.000000000000000000e+00
0.000000000000000000e+00 0.000000000000000000e+00 3.000000000000000000e+00 1.263499975204467773e+00 7.294820547103881836e-01 3.000000000000000000e+00
0.000000000000000000e+00 0.000000000000000000e+00 3.000000000000000000e+00 1.243499994277954102e+00 7.179350852966308594e-01 3.000000000000000000e+00
0.000000000000000000e+00 0.000000000000000000e+00 3.000000000000000000e+00 1.266499996185302734e+00 7.312141060829162598e-01 3.000000000000000000e+00
0.000000000000000000e+00 0.000000000000000000e+00 3.000000000000000000e+00 1.205000042915344238e+00 6.957070827484130859e-01 3.000000000000000000e+00
0.000000000000000000e+00 0.000000000000000000e+00 3.000000000000000000e+00 1.261500000953674316e+00 7.283273339271545410e-01 3.000000000000000000e+00
0.000000000000000000e+00 0.000000000000000000e+00 3.000000000000000000e+00 1.246999979019165039e+00 7.199558019638061523e-01 3.000000000000000000e+00
0.000000000000000000e+00 0.000000000000000000e+00 3.000000000000000000e+00 1.253000020980834961e+00 7.234199047088623047e-01 3.000000000000000000e+00
0.000000000000000000e+00 0.000000000000000000e+00 3.000000000000000000e+00 1.248000025749206543e+00 7.205331325531005859e-01 3.000000000000000000e+00
0.000000000000000000e+00 0.000000000000000000e+00 3.000000000000000000e+00 1.182500004768371582e+00 6.827166676521301270e-01 3.000000000000000000e+00
0.000000000000000000e+00 0.000000000000000000e+00 3.000000000000000000e+00 1.173499941825866699e+00 6.775205135345458984e-01 3.000000000000000000e+00
0.000000000000000000e+00 0.000000000000000000e+00 3.000000000000000000e+00 1.259500026702880859e+00 7.271726727485656738e-01 3.000000000000000000e+00
0.000000000000000000e+00 0.000000000000000000e+00 3.000000000000000000e+00 1.231500029563903809e+00 7.110068798065185547e-01 3.000000000000000000e+00
0.000000000000000000e+00 0.000000000000000000e+00 3.000000000000000000e+00 1.233500003814697266e+00 7.121615409851074219e-01 3.000000000000000000e+00
0.000000000000000000e+00 0.000000000000000000e+00 3.000000000000000000e+00 1.217499971389770508e+00 7.029239535331726074e-01 3.000000000000000000e+00
0.000000000000000000e+00 0.000000000000000000e+00 3.000000000000000000e+00 1.200500011444091797e+00 6.931089758872985840e-01 3.000000000000000000e+00
0.000000000000000000e+00 0.000000000000000000e+00 3.000000000000000000e+00 1.264500021934509277e+00 7.300594449043273926e-01 3.000000000000000000e+00
0.000000000000000000e+00 0.000000000000000000e+00 3.000000000000000000e+00 1.222499966621398926e+00 7.058107256889343262e-01 3.000000000000000000e+00
0.000000000000000000e+00 0.000000000000000000e+00 3.000000000000000000e+00 1.273499965667724609e+00 7.352555990219116211e-01 3.000000000000000000e+00
0.000000000000000000e+00 0.000000000000000000e+00 3.000000000000000000e+00 1.271499991416931152e+00 7.341008782386779785e-01 3.000000000000000000e+00
0.000000000000000000e+00 0.000000000000000000e+00 3.000000000000000000e+00 1.290500044822692871e+00 7.450705170631408691e-01 3.000000000000000000e+00
0.000000000000000000e+00 0.000000000000000000e+00 3.000000000000000000e+00 1.228999972343444824e+00 7.095634937286376953e-01 3.000000000000000000e+00
0.000000000000000000e+00 0.000000000000000000e+00 3.000000000000000000e+00 1.218999981880187988e+00 7.037900090217590332e-01 3.000000000000000000e+00
0.000000000000000000e+00 0.000000000000000000e+00 3.000000000000000000e+00 1.211500048637390137e+00 6.994598507881164551e-01 3.000000000000000000e+00
0.000000000000000000e+00 0.000000000000000000e+00 3.000000000000000000e+00 1.179499983787536621e+00 6.809846162796020508e-01 3.000000000000000000e+00
0.000000000000000000e+00 0.000000000000000000e+00 3.000000000000000000e+00 1.222000002861022949e+00 7.055220007896423340e-01 3.000000000000000000e+00
0.000000000000000000e+00 0.000000000000000000e+00 3.000000000000000000e+00 1.250499963760375977e+00 7.219765186309814453e-01 3.000000000000000000e+00
0.000000000000000000e+00 0.000000000000000000e+00 3.000000000000000000e+00 1.178500056266784668e+00 6.804072856903076172e-01 3.000000000000000000e+00
0.000000000000000000e+00 0.000000000000000000e+00 3.000000000000000000e+00 1.259999990463256836e+00 7.274613380432128906e-01 3.000000000000000000e+00
0.000000000000000000e+00 0.000000000000000000e+00 3.000000000000000000e+00 1.256500005722045898e+00 7.254406213760375977e-01 3.000000000000000000e+00
0.000000000000000000e+00 0.000000000000000000e+00 3.000000000000000000e+00 1.191499948501586914e+00 6.879128217697143555e-01 3.000000000000000000e+00
0.000000000000000000e+00 0.000000000000000000e+00 3.000000000000000000e+00 1.277500033378601074e+00 7.375649809837341309e-01 3.000000000000000000e+00
0.000000000000000000e+00 0.000000000000000000e+00 3.000000000000000000e+00 1.230999946594238281e+00 7.107181549072265625e-01 3.000000000000000000e+00
0.000000000000000000e+00 0.000000000000000000e+00 3.000000000000000000e+00 1.230499982833862305e+00 7.104294896125793457e-01 3.000000000000000000e+00
0.000000000000000000e+00 0.000000000000000000e+00 3.000000000000000000e+00 1.260499954223632812e+00 7.277500033378601074e-01 3.000000000000000000e+00
0.000000000000000000e+00 0.000000000000000000e+00 3.000000000000000000e+00 1.215499997138977051e+00 7.017692327499389648e-01 3.000000000000000000e+00
0.000000000000000000e+00 0.000000000000000000e+00 3.000000000000000000e+00 1.190500020980834961e+00 6.873354911804199219e-01 3.000000000000000000e+00
0.000000000000000000e+00 0.000000000000000000e+00 3.000000000000000000e+00 1.223999977111816406e+00 7.066767215728759766e-01 3.000000000000000000e+00
0.000000000000000000e+00 0.000000000000000000e+00 3.000000000000000000e+00 1.207999944686889648e+00 6.974391341209411621e-01 3.000000000000000000e+00
0.000000000000000000e+00 0.000000000000000000e+00 3.000000000000000000e+00 1.234500050544738770e+00 7.127389311790466309e-01 3.000000000000000000e+00
0.000000000000000000e+00 0.000000000000000000e+00 3.000000000000000000e+00 1.237499952316284180e+00 7.144709825515747070e-01 3.000000000000000000e+00
0.000000000000000000e+00 0.000000000000000000e+00 3.000000000000000000e+00 1.252500057220458984e+00 7.231312394142150879e-01 3.000000000000000000e+00
0.000000000000000000e+00 0.000000000000000000e+00 3.000000000000000000e+00 1.236999988555908203e+00 7.141822576522827148e-01 3.000000000000000000e+00
0.000000000000000000e+00 0.000000000000000000e+00 3.000000000000000000e+00 1.256999969482421875e+00 7.257292866706848145e-01 3.000000000000000000e+00
0.000000000000000000e+00 0.000000000000000000e+00 3.000000000000000000e+00 1.198500037193298340e+00 6.919543147087097168e-01 3.000000000000000000e+00
0.000000000000000000e+00 0.000000000000000000e+00 3.000000000000000000e+00 1.280500054359436035e+00 7.392970323562622070e-01 3.000000000000000000e+00
0.000000000000000000e+00 0.000000000000000000e+00 3.000000000000000000e+00 1.210500001907348633e+00 6.988825201988220215e-01 3.000000000000000000e+00
0.000000000000000000e+00 0.000000000000000000e+00 3.000000000000000000e+00 1.242499947547912598e+00 7.173576951026916504e-01 3.000000000000000000e+00
0.000000000000000000e+00 0.000000000000000000e+00 3.000000000000000000e+00 1.219499945640563965e+00 7.040786743164062500e-01 3.000000000000000000e+00
0.000000000000000000e+00 0.000000000000000000e+00 3.000000000000000000e+00 1.214499950408935547e+00 7.011919021606445312e-01 3.000000000000000000e+00
0.000000000000000000e+00 0.000000000000000000e+00 3.000000000000000000e+00 1.213500022888183594e+00 7.006145715713500977e-01 3.000000000000000000e+00
0.000000000000000000e+00 0.000000000000000000e+00 3.000000000000000000e+00 1.282500028610229492e+00 7.404516935348510742e-01 3.000000000000000000e+00
0.000000000000000000e+00 0.000000000000000000e+00 3.000000000000000000e+00 1.283499956130981445e+00 7.410290837287902832e-01 3.000000000000000000e+00
0.000000000000000000e+00 0.000000000000000000e+00 3.000000000000000000e+00 1.256000041961669922e+00 7.251519560813903809e-01 3.000000000000000000e+00
0.000000000000000000e+00 0.000000000000000000e+00 3.000000000000000000e+00 1.205500006675720215e+00 6.959957480430603027e-01 3.000000000000000000e+00
0.000000000000000000e+00 0.000000000000000000e+00 3.000000000000000000e+00 1.227499961853027344e+00 7.086974382400512695e-01 3.000000000000000000e+00
0.000000000000000000e+00 0.000000000000000000e+00 3.000000000000000000e+00 1.245000004768371582e+00 7.188010811805725098e-01 3.000000000000000000e+00
0.000000000000000000e+00 0.000000000000000000e+00 3.000000000000000000e+00 1.248999953269958496e+00 7.211104631423950195e-01 3.000000000000000000e+00
