-1.593659591674804688e+01
-1.612852668762207031e+01
-1.609424400329589844e+01
-1.612512969970703125e+01
-1.612581443786621094e+01
-1.602334403991699219e+01
-1.582760143280029297e+01
-1.608204460144042969e+01
-1.607582283020019531e+01
-1.612703895568847656e+01
-1.609233856201171875e+01
-1.592891025543212891e+01
-1.582335758209228516e+01
-1.611054229736328125e+01
-1.610136032104492188e+01
-1.612954521179199219e+01
-1.612960243225097656e+01
-1.593814182281494141e+01
-1.573464679718017578e+01
-1.581144618988037109e+01
-1.585758209228515625e+01
-1.613051795959472656e+01
-1.587203311920166016e+01
-1.574809741973876953e+01
-1.598864936828613281e+01
-1.611502075195312500e+01
-1.599914455413818359e+01
-1.612193107604980469e+01
-1.612579154968261719e+01
-1.590974235534667969e+01
-1.607756233215332031e+01
-1.608631896972656250e+01
-1.591335105895996094e+01
-1.584573841094970703e+01
-1.609828948974609375e+01
-1.607153511047363281e+01
-1.588054847717285156e+01
-1.578687763214111328e+01
-1.612758255004882812e+01
-1.612922096252441406e+01
-1.612366867065429688e+01
-1.607790565490722656e+01
-1.611614799499511719e+01
-1.609790229797363281e+01
-1.611828422546386719e+01
-1.610451316833496094e+01
-1.613036918640136719e+01
-1.597952270507812500e+01
-1.590533733367919922e+01
-1.603727149963378906e+01
-1.597271060943603516e+01
-1.612441825866699219e+01
-1.585462951660156250e+01
-1.601152420043945312e+01
-1.608776092529296875e+01
-1.610597419738769531e+01
-1.611189842224121094e+01
-1.611682891845703125e+01
-1.611566925048828125e+01
-1.599626636505126953e+01
-1.612512588500976562e+01
-1.611794853210449219e+01
-1.613051223754882812e+01
-1.612893486022949219e+01
-1.606797599792480469e+01
-1.612752532958984375e+01
-1.607524490356445312e+01
-1.612439918518066406e+01
-1.613047218322753906e+01
-1.606544876098632812e+01
-1.601750946044921875e+01
-1.597273445129394531e+01
-1.601082611083984375e+01
-1.610148239135742188e+01
-1.612699127197265625e+01
-1.609142684936523438e+01
-1.604000091552734375e+01
-1.589719772338867188e+01
-1.612644958496093750e+01
-1.606287193298339844e+01
-1.610767555236816406e+01
-1.611901473999023438e+01
-1.612287712097167969e+01
-1.612801170349121094e+01
-1.612280273437500000e+01
-1.605534172058105469e+01
-1.612986564636230469e+01
-1.588893604278564453e+01
-1.583672809600830078e+01
-1.607982444763183594e+01
-1.602904319763183594e+01
-1.604918289184570312e+01
-1.610461997985839844e+01
-1.595866775512695312e+01
-1.610617256164550781e+01
-1.611928558349609375e+01
-1.605037307739257812e+01
-1.612024879455566406e+01
-1.603459358215332031e+01
-1.605755996704101562e+01
-1.606015968322753906e+01
-1.611263847351074219e+01
-1.609493827819824219e+01
-1.611009788513183594e+01
-1.587917232513427734e+01
-1.577420902252197266e+01
-1.606933975219726562e+01
-1.613038825988769531e+01
-1.613046646118164062e+01
-1.610913276672363281e+01
-1.603099060058593750e+01
-1.604525756835937500e+01
-1.612100601196289062e+01
-1.599274253845214844e+01
-1.600540733337402344e+01
-1.586339187622070312e+01
-1.612929153442382812e+01
-1.611320304870605469e+01
-1.608837890625000000e+01
-1.584642982482910156e+01
-1.612003898620605469e+01
-1.610301971435546875e+01
-1.583501720428466797e+01
-1.606710243225097656e+01
-1.608195877075195312e+01
-1.596443843841552734e+01
-1.596575164794921875e+01
-1.613026428222656250e+01
-1.613008880615234375e+01
-1.606482696533203125e+01
-1.610301780700683594e+01
-1.595590591430664062e+01
-1.612362861633300781e+01
-1.607287406921386719e+01
-1.613022804260253906e+01
-1.612845993041992188e+01
-1.609663581848144531e+01
-1.612885856628417969e+01
-1.607995033264160156e+01
-1.601776885986328125e+01
-1.594408321380615234e+01
-1.608420944213867188e+01
-1.612204170227050781e+01
-1.611446189880371094e+01
-1.609965705871582031e+01
-1.609609794616699219e+01
-1.592897891998291016e+01
-1.592122840881347656e+01
-1.608392906188964844e+01
-1.606024551391601562e+01
-1.612807846069335938e+01
-1.611723709106445312e+01
-1.610739326477050781e+01
