ITEM: TIMESTEP
60 
ITEM: NUMBER OF ATOMS
24000
ITEM: BOX BOUNDS pp pp pp
-100.0000000000        445.9510000000
-100.0000000000        455.6000000000
0.0000000000         20.0000000000
ITEM: ATOMS id type x y z LRI
1   1       243.9100000000         8.1728200000         4.8223100000 -0.0205141217
2   1       245.1120000000         8.8810200000         4.9596000000 -0.0300210748
3   1       245.1500000000        10.2470000000         4.9734800000 0.0129234313
4   1       243.9900000000        11.0174000000         4.8700300000 0.0100885892
5   1       244.0130000000        12.3876000000         4.8724900000 0.0072633930
6   1       245.2150000000        13.0926000000         4.9796600000 0.0216171225
7   1       245.2270000000        14.4560000000         5.0004700000 0.0390619904
8   1       244.0500000000        15.2000000000         4.9008600000 0.0238751828
9   1       244.0620000000        16.5676000000         4.9085700000 0.0300004104
10   1       245.2630000000        17.2737000000         5.0140900000 0.0501827904
11   1       245.2700000000        18.6362000000         5.0398200000 0.0613093243
12   1       244.0870000000        19.3699000000         4.9408500000 0.0492631531
13   1       244.0980000000        20.7365000000         4.9490500000 0.0619466925
14   1       245.2990000000        21.4414000000         5.0518800000 0.0848762090
15   1       245.3050000000        22.8035000000         5.0830400000 0.0933437421
16   1       244.1200000000        23.5331000000         4.9844800000 0.0869819623
17   1       244.1300000000        24.8991000000         4.9951900000 0.1038327345
18   1       245.3310000000        25.6030000000         5.0977800000 0.1288996118
19   1       245.3370000000        26.9648000000         5.1345700000 0.1354109694
20   1       244.1510000000        27.6928000000         5.0377100000 0.1294974468
21   1       244.1610000000        29.0584000000         5.0519600000 0.1467697677
22   1       245.3630000000        29.7617000000         5.1552900000 0.1733298462
23   1       245.3690000000        31.1233000000         5.1948800000 0.1785024973
24   1       244.1820000000        31.8502000000         5.0998400000 0.1724971544
25   1       244.1920000000        33.2156000000         5.1183500000 0.1888866753
26   1       245.3940000000        33.9187000000         5.2248700000 0.2160687612
27   1       245.4000000000        35.2802000000         5.2644000000 0.2187142420
28   1       244.2130000000        36.0063000000         5.1696000000 0.2126149395
29   1       244.2230000000        37.3715000000         5.1901400000 0.2284862250
30   1       245.4240000000        38.0748000000         5.2991200000 0.2555454696
31   1       245.4310000000        39.4363000000         5.3351600000 0.2549909289
32   1       244.2430000000        40.1617000000         5.2391200000 0.2474138842
33   1       244.2530000000        41.5267000000         5.2593000000 0.2608102195
34   1       245.4530000000        42.2305000000         5.3692600000 0.2884550080
35   1       245.4600000000        43.5919000000         5.4006300000 0.2849644482
36   1       244.2720000000        44.3165000000         5.3042800000 0.2760537131
37   1       244.2820000000        45.6813000000         5.3242300000 0.2866299479
38   1       245.4820000000        46.3858000000         5.4348300000 0.3128802567
39   1       245.4890000000        47.7472000000         5.4613100000 0.3057117349
40   1       244.3000000000        48.4708000000         5.3652400000 0.2947941740
41   1       244.3090000000        49.8355000000         5.3851100000 0.3020548280
42   1       245.5080000000        50.5407000000         5.4961500000 0.3279687829
43   1       245.5150000000        51.9021000000         5.5188300000 0.3185970531
44   1       244.3250000000        52.6246000000         5.4244600000 0.3055162257
45   1       244.3330000000        53.9891000000         5.4456000000 0.3137246819
46   1       245.5320000000        54.6950000000         5.5584600000 0.3381038890
47   1       245.5380000000        56.0565000000         5.5763300000 0.3312953177
48   1       244.3480000000        56.7774000000         5.4825400000 0.3222162163
49   1       244.3550000000        58.1416000000         5.5043800000 0.3311946425
50   1       245.5530000000        58.8480000000         5.6185700000 0.3544273633
51   1       245.5590000000        60.2093000000         5.6326000000 0.3482029585
52   1       244.3680000000        60.9292000000         5.5385100000 0.3388119047
53   1       244.3740000000        62.2931000000         5.5591400000 0.3458074649
54   1       245.5720000000        62.9996000000         5.6733600000 0.3665091718
55   1       245.5780000000        64.3610000000         5.6846800000 0.3594625255
56   1       244.3870000000        65.0799000000         5.5891600000 0.3489524842
57   1       244.3930000000        66.4439000000         5.6066800000 0.3535000853
58   1       245.5900000000        67.1508000000         5.7195000000 0.3714999708
59   1       245.5960000000        68.5122000000         5.7271400000 0.3651963623
60   1       244.4040000000        69.2301000000         5.6302100000 0.3541175498
61   1       244.4080000000        70.5941000000         5.6434100000 0.3581907299
62   1       245.6050000000        71.3022000000         5.7535700000 0.3729350268
63   1       245.6090000000        72.6635000000         5.7573900000 0.3712122544
64   1       244.4170000000        73.3801000000         5.6580900000 0.3633431695
65   1       244.4200000000        74.7439000000         5.6646600000 0.3664320370
66   1       245.6170000000        75.4533000000         5.7710900000 0.3776416837
67   1       245.6200000000        76.8143000000         5.7723600000 0.3748076816
68   1       244.4270000000        77.5297000000         5.6693700000 0.3647476604
69   1       244.4300000000        78.8932000000         5.6694200000 0.3616841620
70   1       245.6260000000        79.6035000000         5.7724200000 0.3689870485
71   1       245.6280000000        80.9645000000         5.7718000000 0.3648060066
72   1       244.4340000000        81.6787000000         5.6652600000 0.3522135543
73   1       244.4360000000        83.0424000000         5.6589400000 0.3438120829
74   1       245.6320000000        83.7537000000         5.7591800000 0.3472826553
75   1       245.6330000000        85.1149000000         5.7553200000 0.3422374311
76   1       244.4390000000        85.8281000000         5.6452100000 0.3283321098
77   1       244.4400000000        87.1919000000         5.6327100000 0.3180822744
78   1       245.6350000000        87.9041000000         5.7308100000 0.3235449160
79   1       245.6360000000        89.2653000000         5.7226400000 0.3231704220
80   1       244.4420000000        89.9778000000         5.6101200000 0.3050505281
81   1       244.4420000000        91.3415000000         5.5930700000 0.2950341443
82   1       245.6370000000        92.0544000000         5.6902000000 0.2990491659
83   1       245.6370000000        93.4155000000         5.6779600000 0.3006348963
84   1       244.4430000000        94.1277000000         5.5633400000 0.2807283458
85   1       244.4440000000        95.4915000000         5.5421000000 0.2686195820
86   1       245.6390000000        96.2048000000         5.6374100000 0.2704618757
87   1       245.6390000000        97.5660000000         5.6200700000 0.2732418002
88   1       244.4440000000        98.2782000000         5.5049100000 0.2520212989
89   1       244.4450000000        99.6421000000         5.4811600000 0.2389975734
90   1       245.6390000000       100.3560000000         5.5766100000 0.2395360448
91   1       245.6400000000       101.7170000000         5.5525300000 0.2435909965
92   1       244.4460000000       102.4290000000         5.4371400000 0.2205151460
93   1       244.4470000000       103.7940000000         5.4118200000 0.2059176648
94   1       245.6410000000       104.5080000000         5.5076700000 0.2055482288
95   1       245.6430000000       105.8690000000         5.4776000000 0.2118963501
96   1       244.4490000000       106.5810000000         5.3623700000 0.1884463338
97   1       244.4500000000       107.9460000000         5.3359200000 0.1743359804
98   1       245.6440000000       108.6600000000         5.4316800000 0.1762008153
99   1       245.6460000000       110.0210000000         5.3974100000 0.1863356691
100   1       244.4530000000       110.7340000000         5.2833200000 0.1591156244
101   1       244.4550000000       112.0980000000         5.2559500000 0.1457145349
102   1       245.6490000000       112.8130000000         5.3504100000 0.1450840247
103   1       245.6520000000       114.1740000000         5.3122200000 0.1545999550
104   1       244.4590000000       114.8880000000         5.2001100000 0.1266456143
105   1       244.4620000000       116.2520000000         5.1726800000 0.1098494598
106   1       245.6570000000       116.9650000000         5.2655800000 0.1054306871
107   1       245.6610000000       118.3270000000         5.2270700000 0.1142693729
108   1       244.4680000000       119.0420000000         5.1185000000 0.0859336759
109   1       244.4720000000       120.4060000000         5.0933000000 0.0678755213
110   1       245.6680000000       121.1190000000         5.1851300000 0.0629618422
111   1       245.6730000000       122.4800000000         5.1488900000 0.0747892975
112   1       244.4800000000       123.1960000000         5.0445400000 0.0515106975
113   1       244.4850000000       124.5610000000         5.0230900000 0.0437151028
114   1       245.6820000000       125.2730000000         5.1143300000 0.0381808986
115   1       245.6880000000       126.6340000000         5.0828100000 0.0554778154
116   1       244.4950000000       127.3510000000         4.9832000000 0.0372625928
117   1       244.5020000000       128.7160000000         4.9665900000 0.0337873305
118   1       245.7000000000       129.4260000000         5.0573000000 0.0280189206
119   1       245.7070000000       130.7880000000         5.0323700000 0.0486742769
120   1       244.5150000000       131.5060000000         4.9379800000 0.0336917887
121   1       244.5230000000       132.8720000000         4.9276300000 0.0325519491
122   1       245.7210000000       133.5800000000         5.0190000000 0.0266914922
123   1       245.7300000000       134.9420000000         5.0027400000 0.0502528014
124   1       244.5380000000       135.6610000000         4.9130900000 0.0390506677
125   1       244.5470000000       137.0260000000         4.9099000000 0.0432447139
126   1       245.7470000000       137.7330000000         5.0025300000 0.0389867819
127   1       245.7560000000       139.0950000000         4.9968900000 0.0662914972
128   1       244.5640000000       139.8160000000         4.9117800000 0.0590592024
129   1       244.5750000000       141.1810000000         4.9164500000 0.0705669998
130   1       245.7750000000       141.8860000000         5.0109800000 0.0699310415
131   1       245.7860000000       143.2480000000         5.0180300000 0.1064550916
132   1       244.5940000000       143.9690000000         4.9372300000 0.1071681694
133   1       244.6070000000       145.3340000000         4.9505400000 0.1293508573
134   1       245.8080000000       146.0370000000         5.0474300000 0.1321208560
135   1       245.8190000000       147.3990000000         5.0684700000 0.1710035197
136   1       244.6280000000       148.1220000000         4.9920600000 0.1728487701
137   1       244.6410000000       149.4860000000         5.0148000000 0.1948063413
138   1       245.8430000000       150.1870000000         5.1149700000 0.1983118970
139   1       245.8550000000       151.5490000000         5.1510600000 0.2365106257
140   1       244.6650000000       152.2720000000         5.0784500000 0.2389473641
141   1       244.6790000000       153.6370000000         5.1103900000 0.2604703746
142   1       245.8820000000       154.3360000000         5.2140500000 0.2658402551
143   1       245.8940000000       155.6970000000         5.2640900000 0.3026038338
144   1       244.7040000000       156.4210000000         5.1935400000 0.3047416061
145   1       244.7180000000       157.7850000000         5.2329100000 0.3277104637
146   1       245.9220000000       158.4830000000         5.3404600000 0.3340404461
147   1       245.9340000000       159.8430000000         5.3997200000 0.3704091956
148   1       244.7440000000       160.5680000000         5.3297300000 0.3736573309
149   1       244.7590000000       161.9310000000         5.3735100000 0.3987395402
150   1       245.9630000000       162.6290000000         5.4822000000 0.4067268192
151   1       245.9740000000       163.9890000000         5.5472100000 0.4422309402
152   1       244.7840000000       164.7130000000         5.4780200000 0.4471401441
153   1       244.7980000000       166.0760000000         5.5254400000 0.4743990185
154   1       246.0010000000       166.7740000000         5.6380600000 0.4831914113
155   1       246.0130000000       168.1340000000         5.7028000000 0.5191026980
156   1       244.8230000000       168.8570000000         5.6307900000 0.5295881941
157   1       244.8360000000       170.2190000000         5.6784300000 0.5598689231
158   1       246.0380000000       170.9180000000         5.7951300000 0.5693272706
159   1       246.0490000000       172.2780000000         5.8544000000 0.6051275189
160   1       244.8580000000       172.9990000000         5.7764900000 0.6214400249
161   1       244.8690000000       174.3620000000         5.8198600000 0.6556934026
162   1       246.0700000000       175.0610000000         5.9388900000 0.6636970466
163   1       246.0800000000       176.4210000000         5.9877500000 0.7004054708
164   1       244.8890000000       177.1400000000         5.9020100000 0.7260595069
165   1       244.8980000000       178.5030000000         5.9366000000 0.7664134634
166   1       246.0980000000       179.2040000000         6.0555000000 0.7680594964
167   1       246.1050000000       180.5650000000         6.0894800000 0.8000273628
168   1       244.9130000000       181.2820000000         5.9952600000 0.8370499592
169   1       244.9200000000       182.6450000000         6.0165100000 0.8741646499
170   1       246.1180000000       183.3480000000         6.1316400000 0.8468421130
171   1       246.1230000000       184.7100000000         6.1455800000 0.8501808900
172   1       244.9290000000       185.4240000000         6.0430700000 0.8852286690
173   1       244.9330000000       186.7870000000         6.0473500000 0.8548592154
174   1       246.1300000000       187.4940000000         6.1547800000 0.8186202944
175   1       246.1320000000       188.8550000000         6.1473000000 0.7862452687
176   1       244.9370000000       189.5660000000         6.0390800000 0.7859262629
177   1       244.9370000000       190.9300000000         6.0277400000 0.7475559983
178   1       246.1330000000       191.6400000000         6.1262500000 0.7215999943
179   1       246.1320000000       193.0010000000         6.1023400000 0.6879397393
180   1       244.9370000000       193.7110000000         5.9922300000 0.6778012438
181   1       244.9340000000       195.0740000000         5.9697900000 0.6426307589
182   1       246.1290000000       195.7880000000         6.0600100000 0.6229129115
183   1       246.1250000000       197.1490000000         6.0245500000 0.5919563211
184   1       244.9280000000       197.8570000000         5.9147700000 0.5806371501
185   1       244.9230000000       199.2200000000         5.8849000000 0.5489290318
186   1       246.1170000000       199.9370000000         5.9678100000 0.5344293923
187   1       246.1120000000       201.2980000000         5.9232600000 0.5044108513
188   1       244.9140000000       202.0050000000         5.8145300000 0.4927763885
189   1       244.9070000000       203.3690000000         5.7789300000 0.4653862057
190   1       246.1000000000       204.0880000000         5.8549900000 0.4564252241
191   1       246.0950000000       205.4490000000         5.8045600000 0.4256127706
192   1       244.8960000000       206.1550000000         5.6989600000 0.4138137720
193   1       244.8880000000       207.5200000000         5.6631600000 0.3890040698
194   1       246.0800000000       208.2400000000         5.7362600000 0.3842126666
195   1       246.0740000000       209.6020000000         5.6869600000 0.3531081349
196   1       244.8750000000       210.3080000000         5.5860800000 0.3417392579
197   1       244.8660000000       211.6730000000         5.5559900000 0.3196592962
198   1       246.0580000000       212.3940000000         5.6310800000 0.3208614753
199   1       246.0520000000       213.7560000000         5.5899700000 0.2879680309
200   1       244.8520000000       214.4630000000         5.4913000000 0.2774089424
201   1       244.8440000000       215.8280000000         5.4673400000 0.2573270526
202   1       246.0350000000       216.5510000000         5.5451200000 0.2618274791
203   1       246.0290000000       217.9130000000         5.5126000000 0.2285583094
204   1       244.8300000000       218.6220000000         5.4158600000 0.2207902720
205   1       244.8220000000       219.9880000000         5.3983700000 0.2022501130
206   1       246.0120000000       220.7110000000         5.4798300000 0.2071998337
207   1       246.0070000000       222.0730000000         5.4560700000 0.1727083753
208   1       244.8090000000       222.7840000000         5.3602700000 0.1670447543
209   1       244.8010000000       224.1500000000         5.3491500000 0.1500692994
210   1       245.9910000000       224.8750000000         5.4343500000 0.1546871307
211   1       245.9860000000       226.2370000000         5.4196100000 0.1182755710
212   1       244.7890000000       226.9490000000         5.3227800000 0.1149286910
213   1       244.7830000000       228.3160000000         5.3153600000 0.0987337924
214   1       245.9710000000       229.0420000000         5.4031900000 0.1027629207
215   1       245.9670000000       230.4040000000         5.3942900000 0.0652650193
216   1       244.7710000000       231.1180000000         5.2945600000 0.0647882771
217   1       244.7650000000       232.4860000000         5.2881400000 0.0518186330
218   1       245.9530000000       233.2130000000         5.3769600000 0.0609888099
219   1       245.9490000000       234.5760000000         5.3721500000 0.0300443788
220   1       244.7550000000       235.2920000000         5.2701900000 0.0335675578
221   1       244.7490000000       236.6600000000         5.2647400000 0.0309828809
222   1       245.9350000000       237.3910000000         5.3541100000 0.0456739077
223   1       245.9310000000       238.7540000000         5.3536900000 0.0165690235
224   1       244.7370000000       239.4720000000         5.2507400000 0.0226170564
225   1       244.7310000000       240.8410000000         5.2466700000 0.0246578493
226   1       245.9140000000       241.5770000000         5.3366300000 0.0417109034
227   1       245.9080000000       242.9410000000         5.3396500000 0.0122176376
228   1       244.7150000000       243.6600000000         5.2352500000 0.0200088875
229   1       244.7060000000       245.0310000000         5.2307200000 0.0280289205
230   1       245.8840000000       245.7770000000         5.3192700000 0.0471149599
231   1       245.8730000000       247.1420000000         5.3230900000 0.0177221744
232   1       244.6790000000       247.8600000000         5.2173300000 0.0303774595
233   1       244.6620000000       249.2330000000         5.2098400000 0.0467942119
234   1       245.8290000000       249.9990000000         5.2893400000 0.0629642824
235   1       245.7980000000       251.3640000000         5.2966700000 0.0350941136
236   1       244.6000000000       252.0860000000         5.2128200000 0.0619477337
237   1       244.5680000000       253.4770000000         5.2383500000 0.0831696041
238   1       245.7440000000       254.1960000000         5.3092900000 0.1925116353
239   1       246.8620000000       254.8860000000         5.4011700000 0.2574811143
240   1       243.8510000000         6.8348600000         4.7090000000 -0.0658831930
241   1       241.5240000000         8.2832300000         4.7067000000 -0.0314921951
242   1       242.7420000000         8.9442500000         4.7773600000 -0.0173842209
243   1       242.7740000000        10.3399000000         4.7898600000 -0.0258149916
244   1       241.5940000000        11.0682000000         4.7494500000 -0.0177469335
245   1       241.6150000000        12.4536000000         4.7554500000 -0.0226123794
246   1       242.8290000000        13.1211000000         4.8084500000 -0.0041236091
247   1       242.8420000000        14.5128000000         4.8187900000 -0.0044325849
248   1       241.6520000000        15.2260000000         4.7818500000 -0.0099300552
249   1       241.6630000000        16.6123000000         4.7925700000 -0.0049929059
250   1       242.8730000000        17.2889000000         4.8461800000 0.0146978822
251   1       242.8820000000        18.6794000000         4.8586100000 0.0220586151
252   1       241.6890000000        19.3865000000         4.8214000000 0.0188632042
253   1       241.6990000000        20.7728000000         4.8334200000 0.0297797365
254   1       242.9060000000        21.4526000000         4.8870800000 0.0501884649
255   1       242.9150000000        22.8422000000         4.9014600000 0.0610130012
256   1       241.7210000000        23.5462000000         4.8645000000 0.0570202216
257   1       241.7310000000        24.9322000000         4.8793400000 0.0696873774
258   1       242.9380000000        25.6129000000         4.9344100000 0.0912985440
259   1       242.9470000000        27.0020000000         4.9527000000 0.1030597502
260   1       241.7520000000        27.7043000000         4.9157800000 0.0984607812
261   1       241.7620000000        29.0900000000         4.9338400000 0.1112969721
262   1       242.9690000000        29.7710000000         4.9913000000 0.1340499409
263   1       242.9780000000        31.1596000000         5.0128800000 0.1458597754
264   1       241.7830000000        31.8609000000         4.9754400000 0.1396948699
265   1       241.7930000000        33.2464000000         4.9968700000 0.1521337737
266   1       243.0000000000        33.9274000000         5.0570500000 0.1746275724
267   1       243.0090000000        35.3158000000         5.0810200000 0.1857229712
268   1       241.8140000000        36.0162000000         5.0418400000 0.1787531757
269   1       241.8240000000        37.4016000000         5.0642600000 0.1902481512
270   1       243.0300000000        38.0826000000         5.1263200000 0.2128298021
271   1       243.0390000000        39.4708000000         5.1500900000 0.2219655998
272   1       241.8440000000        40.1706000000         5.1080000000 0.2126194065
273   1       241.8540000000        41.5559000000         5.1300000000 0.2219750546
274   1       243.0600000000        42.2372000000         5.1929200000 0.2436259696
275   1       243.0690000000        43.6253000000         5.2156100000 0.2512509351
276   1       241.8730000000        44.3244000000         5.1711700000 0.2394329316
277   1       241.8820000000        45.7095000000         5.1923000000 0.2461426048
278   1       243.0880000000        46.3911000000         5.2557100000 0.2674076441
279   1       243.0970000000        47.7791000000         5.2772200000 0.2723981543
280   1       241.9000000000        48.4773000000         5.2308300000 0.2579774973
281   1       241.9090000000        49.8624000000         5.2515600000 0.2605390989
282   1       243.1150000000        50.5444000000         5.3155200000 0.2805733942
283   1       243.1230000000        51.9322000000         5.3368100000 0.2840502722
284   1       241.9260000000        52.6296000000         5.2895500000 0.2682533057
285   1       241.9340000000        54.0144000000         5.3101900000 0.2747514423
286   1       243.1390000000        54.6969000000         5.3747100000 0.2958086901
287   1       243.1460000000        56.0845000000         5.3951500000 0.3020334707
288   1       241.9480000000        56.7809000000         5.3468700000 0.2878944401
289   1       241.9550000000        58.1655000000         5.3672500000 0.2937724579
290   1       243.1600000000        58.8485000000         5.4324800000 0.3144366655
291   1       243.1660000000        60.2358000000         5.4519800000 0.3188210692
292   1       241.9690000000        60.9313000000         5.4027700000 0.3038771371
293   1       241.9750000000        62.3157000000         5.4215800000 0.3091589841
294   1       243.1790000000        62.9992000000         5.4863200000 0.3288615602
295   1       243.1850000000        64.3862000000         5.5034400000 0.3317213055
296   1       241.9870000000        65.0808000000         5.4525000000 0.3157250022
297   1       241.9930000000        66.4650000000         5.4684400000 0.3187556974
298   1       243.1970000000        67.1489000000         5.5323700000 0.3377375200
299   1       243.2030000000        68.5357000000         5.5460600000 0.3395696880
300   1       242.0040000000        69.2294000000         5.4935700000 0.3231121839
301   1       242.0090000000        70.6134000000         5.5054800000 0.3282928532
302   1       243.2120000000        71.2979000000         5.5676500000 0.3463160932
303   1       243.2160000000        72.6847000000         5.5762900000 0.3505280388
304   1       242.0170000000        73.3772000000         5.5213300000 0.3366312191
305   1       242.0210000000        74.7611000000         5.5271900000 0.3392800623
306   1       243.2240000000        75.4465000000         5.5868400000 0.3557523800
307   1       243.2270000000        76.8331000000         5.5896300000 0.3551078076
308   1       242.0280000000        77.5246000000         5.5323600000 0.3387000073
309   1       242.0300000000        78.9084000000         5.5325100000 0.3361957731
310   1       243.2330000000        79.5947000000         5.5898400000 0.3500347357
311   1       243.2350000000        80.9812000000         5.5872400000 0.3456535046
312   1       242.0350000000        81.6719000000         5.5278000000 0.3277821707
313   1       242.0370000000        83.0557000000         5.5222600000 0.3202882447
314   1       243.2390000000        83.7430000000         5.5773200000 0.3301045899
315   1       243.2400000000        85.1296000000         5.5691500000 0.3221467440
316   1       242.0400000000        85.8197000000         5.5076900000 0.3029235994
317   1       242.0410000000        87.2036000000         5.4966900000 0.2917039610
318   1       243.2420000000        87.8917000000         5.5492400000 0.3031250205
319   1       243.2430000000        89.2784000000         5.5360300000 0.2953441514
320   1       242.0430000000        89.9681000000         5.4732000000 0.2761699233
321   1       242.0430000000        91.3522000000         5.4575400000 0.2674705887
322   1       243.2440000000        92.0410000000         5.5079500000 0.2786796975
323   1       243.2450000000        93.4278000000         5.4906600000 0.2704144863
324   1       242.0440000000        94.1174000000         5.4266300000 0.2506049177
325   1       242.0450000000        95.5015000000         5.4070900000 0.2413308452
326   1       243.2460000000        96.1909000000         5.4554400000 0.2512417257
327   1       243.2460000000        97.5779000000         5.4342000000 0.2424811358
328   1       242.0460000000        98.2675000000         5.3694500000 0.2236017282
329   1       242.0460000000        99.6519000000         5.3463800000 0.2137618798
330   1       243.2470000000       100.3420000000         5.3927700000 0.2217126024
331   1       243.2480000000       101.7290000000         5.3681800000 0.2111224605
332   1       242.0470000000       102.4190000000         5.3029200000 0.1915354502
333   1       242.0480000000       103.8030000000         5.2772600000 0.1811098004
334   1       243.2490000000       104.4930000000         5.3221200000 0.1880746423
335   1       243.2500000000       105.8810000000         5.2951100000 0.1777755095
336   1       242.0500000000       106.5710000000         5.2299200000 0.1588905831
337   1       242.0520000000       107.9560000000         5.2028100000 0.1475795058
338   1       243.2520000000       108.6460000000         5.2460100000 0.1552181357
339   1       243.2540000000       110.0330000000         5.2177500000 0.1459487023
340   1       242.0540000000       110.7250000000         5.1532400000 0.1282122771
341   1       242.0560000000       112.1090000000         5.1252400000 0.1196739897
342   1       243.2570000000       112.7990000000         5.1664200000 0.1256961516
343   1       243.2600000000       114.1870000000         5.1370700000 0.1154387470
344   1       242.0600000000       114.8790000000         5.0742000000 0.0974406556
345   1       242.0640000000       116.2640000000         5.0462500000 0.0856952370
346   1       243.2650000000       116.9540000000         5.0852600000 0.0892945256
347   1       243.2690000000       118.3420000000         5.0570900000 0.0764191851
348   1       242.0690000000       119.0350000000         4.9972100000 0.0591406987
349   1       242.0740000000       120.4200000000         4.9713400000 0.0474869662
350   1       243.2750000000       121.1090000000         5.0091900000 0.0497087912
351   1       243.2800000000       122.4970000000         4.9839200000 0.0423593596
352   1       242.0810000000       123.1910000000         4.9278900000 0.0334957606
353   1       242.0870000000       124.5770000000         4.9058700000 0.0297243416
354   1       243.2890000000       125.2650000000         4.9433000000 0.0330468090
355   1       243.2950000000       126.6530000000         4.9226600000 0.0284882551