BEGIN_CFG
 Size
    31
 Supercell
         9.860000      0.000000      0.000000
         4.930000      8.539010      0.000000
         0.000000      0.000000     30.000000
 AtomData:  id type       cartes_x      cartes_y      cartes_z           fx          fy          fz
             1    0       6.298066      7.926331      4.236563     3.011619   -2.395127   -0.009690
             2    0       2.597991      0.036968      4.446916     1.367341    2.787266    0.700144
             3    0       8.807392      7.914956      4.666088    -1.838385    0.918305   -0.979511
             4    0       5.091464      0.135241      4.672964     0.189917    1.285342   -2.143142
             5    0      11.229652      7.994105      4.356317     0.600393   -0.303634   -0.112205
             6    0       7.627186      0.089646      4.112586    -0.107633    1.133768    0.293183
             7    0      13.800536      7.901577      4.102142    -0.348246    2.299423    0.685654
             8    0       0.264573      0.133707      4.049650    -4.028107    1.408252    2.283205
             9    0       2.592522      1.510826      4.390071     2.612893    0.045393   -0.785315
            10    0       3.881575      2.240684      4.339030    -2.750461    2.717894    0.514095
            11    0       5.066429      1.572822      4.372322     4.394070   -2.021866    0.283324
            12    0       6.432759      2.227152      4.082279    -3.322950   -1.534125   -0.691364
            13    0       7.714942      1.598075      3.962899    -2.117298   -1.494307    0.508853
            14    0       8.950096      2.277799      3.821674     0.197927   -0.447004    2.155760
            15    0      10.125409      1.606303      4.396073    -3.722918   -1.612563   -4.850079
            16    0       1.424310      2.274257      4.153669     2.461615   -0.863222    1.893593
            17    0       3.859930      3.767809      4.330376    -0.571922   -3.640383   -1.557890
            18    0       5.123955      4.411167      4.227367    -0.628188   -4.809359   -1.496025
            19    0       6.348158      3.606066      3.878323     0.653899    1.586033    3.534193
            20    0       7.486159      4.294207      4.348283     0.869895    3.528669   -1.168824
            21    0       9.993356      4.375914      4.046317     0.664684   -1.604835   -0.363321
            22    0      11.233768      3.660103      4.049015    -0.357042    2.345720    0.247170
            23    0       2.595047      4.430634      4.105721     1.035654    1.731768    2.000898
            24    0       5.108632      5.728665      4.184843     0.171030    4.631406    1.398373
            25    0       6.295132      6.461851      4.213436     1.176577    1.332113   -0.369659
            26    0       7.543561      5.795126      4.258784    -0.809684   -2.071540    0.667131
            27    0       8.722074      6.537592      4.439134     1.454893   -1.804537   -0.292630
            28    0       9.913562      5.752606      4.235579     0.389148    1.437886   -0.181050
            29    0      11.123722      6.572249      4.189425     4.094010   -1.191827    1.502159
            30    0      12.480472      5.915974      4.293230    -1.505769   -2.413532   -1.295488
            31    0       3.951384      6.531862      4.404304    -3.236964   -0.981379   -2.371542
 Energy
       -236.453877460000
 Feature   mindist	1.318273
END_CFG

BEGIN_CFG
 Size
    31
 Supercell
         9.860000      0.000000      0.000000
         4.930000      8.539010      0.000000
         0.000000      0.000000     30.000000
 AtomData:  id type       cartes_x      cartes_y      cartes_z           fx          fy          fz
             1    0       9.784544      0.137655     -0.366087    -1.481879   -0.803175    0.365937
             2    0       1.140623      0.811511     -0.288077    -1.697982    2.945728   -0.556724
             3    0       2.332484      0.107424     -0.319442     0.463991    3.702692    0.428279
             4    0       3.551832      0.789300     -0.350974     0.842248    2.568814   -1.027780
             5    0       4.743912      0.052792     -0.589893     2.739800    0.948019    0.847789
             6    0       6.064778      0.801589     -0.674619    -3.172463   -1.236424    0.999275
             7    0       7.274200      0.080676     -0.610726     0.596110   -1.897661    1.967222
             8    0       8.467526      0.823377     -0.467815     2.197200   -1.109001   -0.502558
             9    0      10.978359      2.293299     -0.253648    -2.891142   -1.912621    0.116810
            10    0       2.294594      2.988081     -0.151600     1.420173    1.785608    0.585754
            11    0       3.503793      2.288251     -0.286166     2.964961   -2.073323   -0.349665
            12    0       4.794741      2.936144     -0.374875    -2.163155    1.829850    1.298916
            13    0       5.975398      2.239170     -0.470006     2.845842   -1.317170   -1.568963
            14    0       7.254467      2.796595     -0.632521    -3.107240    1.837779   -0.155527
            15    0       8.463476      2.271162     -0.519549     2.617759   -0.919739    0.870292
            16    0       9.713522      2.961739     -0.270124    -0.539385    1.872540    0.001752
            17    0      12.138966      4.409931      0.045716     0.960303    0.979389   -0.601145
            18    0       3.602460      5.180100     -0.021546     0.806083   -5.849591    0.346203
            19    0       4.939496      4.390115     -0.163682    -3.525084   -1.348527   -0.598844
            20    0       6.061753      5.112518     -0.384246     2.483770    0.871732    1.329753
            21    0       8.428265      5.232127     -0.077281    -0.490966   -3.108946    0.404345
            22    0       9.595297      4.462396     -0.069048     0.360568   -3.087811   -0.225773
            23    0      10.849062      5.120417      0.069508     2.676241   -0.539762   -0.252926
            24    0      13.593563      6.509993     -0.055946    -4.436629    2.518200   -0.956177
            25    0       4.913916      7.221251     -0.279090    -0.897704    1.440420    0.587181
            26    0       6.123326      6.515636     -0.235350     0.259000    0.448579   -1.294461
            27    0       7.292365      7.345174     -0.280143    -0.565945   -6.355371    0.056092
            28    0       8.461535      6.550904     -0.261578     1.090009    1.359138   -0.545560
            29    0       9.761916      7.142767     -0.411197    -1.661611    3.862815    0.256736
            30    0      10.964340      6.531133     -0.084619     1.083907   -1.447332   -0.535864
            31    0      12.251784      7.129308     -0.183802     0.223222    4.035149   -1.290368
 Energy
       -238.392930780000
 Feature   mindist	1.302196
END_CFG

BEGIN_CFG
 Size
    31
 Supercell
         9.860000      0.000000      0.000000
         4.930000      8.539010      0.000000
         0.000000      0.000000     30.000000
 AtomData:  id type       cartes_x      cartes_y      cartes_z           fx          fy          fz
             1    0       8.456200      0.548694     -0.480219    -2.282164    1.188145   -0.403901
             2    0       9.707878      1.260543     -0.377403    -0.701395    1.517488    0.024232
             3    0       1.158362      0.640053     -0.409262    -4.729503    1.034484   -0.483569
             4    0       2.281430      1.397086     -0.669400     2.414393   -3.340031    0.123977
             5    0       3.488983      0.609203     -0.750788     0.008902   -0.650044   -0.195032
             6    0       4.732263      1.217660     -1.063507     0.749130    2.023132    2.557800
             7    0       5.942550      0.549635     -0.719053     1.333705   -0.748263   -0.907726
             8    0       7.197833      1.288607     -0.625143     0.654415   -0.036494    0.620022
             9    0       9.675758      2.695279     -0.351680     0.187407    2.886166   -0.638803
            10    0      10.934668      3.512666     -0.564182    -0.892270   -4.432719    0.031299
            11    0       2.340583      2.745785     -0.799469    -4.013061    2.027116    0.305690
            12    0       3.489376      3.420366     -1.103608     3.599071   -1.721865    1.075812
            13    0       4.847973      2.736878     -1.050732    -4.081950   -1.612042   -1.597728
            14    0       6.039439      3.340051     -1.153882     1.865359    0.628027    1.178338
            15    0       7.227133      2.751395     -0.619541    -1.057950   -0.807244   -1.006910
            16    0       8.398296      3.493309     -0.363150     0.906936   -2.828113   -0.600472
            17    0      10.846694      4.905147     -0.616279    -0.612661   -3.434335    0.357866
            18    0      12.017933      5.553497     -0.558566     5.200055   -0.622413   -0.589594
            19    0       3.462493      4.719211     -0.736852     0.239056    6.935018    0.181747
            20    0       4.499869      5.699781     -0.663971     1.525446   -1.412881    0.801989
            21    0       7.057395      5.619329     -0.538827     0.593603    0.413921   -0.062704
            22    0       8.270176      4.898789     -0.430740     1.831418   -0.650504   -0.561458
            23    0       9.631307      5.493739     -0.564040    -5.131629    4.843654    1.236670
            24    0      12.133064      6.927284     -0.489041    -5.663744   -0.019755   -0.637161
            25    0      13.222157      7.655689     -0.610793     4.352963    4.555260    1.327389
            26    0       4.598854      7.076473     -0.509291     4.112394   -2.100556   -1.098478
            27    0       5.926123      7.830032     -0.496070     0.116153   -3.430615   -0.221415
            28    0       7.127320      7.054558     -0.618251    -2.310418   -2.432001    0.913764
            29    0       8.369852      7.686885     -0.510505     0.827944    2.086362   -1.250899
            30    0       9.566443      6.957430     -0.487360     3.322871   -0.635307   -0.937288
            31    0      10.889409      7.647236     -0.566771    -2.364476    0.776409    0.456543
 Energy
       -236.890211310000
 Feature   mindist	1.315873
END_CFG

BEGIN_CFG
 Size
    31
 Supercell
         9.860000      0.000000      0.000000
         4.930000      8.539010      0.000000
         0.000000      0.000000     30.000000
 AtomData:  id type       cartes_x      cartes_y      cartes_z           fx          fy          fz
             1    0       8.396332      0.603586     -0.410726     0.052252   -2.253034    0.341339
             2    0       9.615583      1.318166     -0.306650    -2.422285    1.796908   -1.660594
             3    0       0.886376      0.594316     -0.567013     3.721145   -0.798069    0.841099
             4    0       2.143753      1.303033     -0.579058    -1.189476    1.328147   -1.867239
             5    0       3.288784      0.559504     -0.550431     4.863121    0.554700   -0.936842
             6    0       4.613325      1.331158     -0.722001     1.915104   -0.869705   -0.815436
             7    0       5.917840      0.612644     -0.671709    -1.206125   -0.514146    0.205515
             8    0       7.228410      1.307793     -0.671180    -3.980105   -1.120580   -0.139059
             9    0       9.550916      2.831814     -0.386379     1.273596   -3.863977    0.279121
            10    0      10.848187      3.431785     -0.553100    -2.446411    3.233023   -0.671651
            11    0       2.190854      2.767789     -0.873484     0.405101   -0.797697    2.594263
            12    0       3.420965      3.529770     -0.894914     2.605919   -1.440882   -2.205188
            13    0       4.787505      2.806503     -1.165485    -7.918105   -3.110038    2.981694
            14    0       5.940917      3.365046     -1.314863     4.622593    0.442873    0.303298
            15    0       7.125191      2.691644     -0.843293    -0.074174    1.233177   -0.115315
            16    0       8.242809      3.442674     -0.443272     2.662651   -2.820865   -0.846941
            17    0      10.743893      4.950231     -0.587095     4.214226   -5.115546   -0.314145
            18    0      12.012220      5.630832     -0.766192     2.323495   -1.970750    0.470496
            19    0       3.604349      4.933063     -0.839734    -1.143809   -0.965744    2.167296
            20    0       4.981376      5.543088     -0.434198    -3.044384    1.504982   -1.654412
            21    0       6.866384      5.433497     -0.492465    -0.273177    3.529638    0.495592
            22    0       8.184449      4.772065     -0.388646    -0.742516    3.724189    0.838192
            23    0       9.540490      5.483857     -0.292867    -3.827002    3.920405   -0.903215
            24    0      12.048354      6.981128     -0.635107     0.781348    1.434628    1.163734
            25    0      13.292752      7.622631     -0.417582     0.584794    3.717248   -1.518948
            26    0       4.695781      7.040290     -0.576981     0.266809   -5.282100    0.941185
            27    0       5.911188      7.642444     -0.639062    -3.242054    7.288614    0.850977
            28    0       7.029083      6.976915     -0.454531     3.106946   -4.784284   -1.458296
            29    0       8.276001      7.647232     -0.496594     1.421581    0.420272    1.371756
            30    0       9.547801      6.942542     -0.342518     0.444693    1.247202   -1.187933
            31    0      10.861238      7.706532     -0.532337    -3.755750    0.331411    0.449659
 Energy
       -235.699209140000
 Feature   mindist	1.290211
END_CFG

BEGIN_CFG
 Size
    31
 Supercell
         9.860000      0.000000      0.000000
         4.930000      8.539010      0.000000
         0.000000      0.000000     30.000000
 AtomData:  id type       cartes_x      cartes_y      cartes_z           fx          fy          fz
             1    0       8.334041      0.562560     -0.659889    -0.079186    1.000933   -0.734974
             2    0       9.535591      1.375775     -0.768419    -0.170885   -4.425370    0.390738
             3    0       0.907093      0.609650     -0.637344    -0.936982    1.712131   -0.027684
             4    0       2.163688      1.289865     -0.559618    -1.521521    0.169527    0.256952
             5    0       3.346416      0.442237     -0.537638     0.796925    6.530198   -1.115756
             6    0       4.582771      1.203177     -0.673575    -1.593832    2.888409    1.136680
             7    0       5.778586      0.575125     -0.554336     4.414039    0.798216   -1.286477
             8    0       7.130569      1.289296     -0.702517    -4.214273    1.000100    1.059871
             9    0       9.510772      2.751097     -0.764639    -3.697929   -1.735312   -0.213838
            10    0      10.648729      3.348371     -0.549603     4.657418    7.507649    1.442770
            11    0       2.032166      2.823915     -0.459340     2.913495   -6.634352   -0.519358
            12    0       3.273280      3.423703     -0.410355     2.363637    0.074573   -0.355348
            13    0       4.569117      2.726147     -0.626377    -1.930119   -0.768329   -0.040739
            14    0       5.734702      3.445205     -0.864024     0.956875   -1.329635    0.446269
            15    0       7.012634      2.779906     -0.733661     1.284591   -1.229582   -0.753256
            16    0       8.309585      3.445952     -0.750992    -4.387263    1.199336   -0.447028
            17    0      10.736041      4.858738     -0.370951    -0.240501   -2.977447   -0.922605
            18    0      11.995958      5.560081     -0.264764    -1.946432   -1.406546    0.102190
            19    0       3.389042      4.821372     -0.294937    -2.732546   -1.057558    0.114985
            20    0       4.467580      5.563033     -0.387806     4.530037    1.881419   -0.609154
            21    0       6.964347      5.673771     -0.469268     2.302946   -0.759569    0.905098
            22    0       8.155435      4.871656     -0.717341     0.875680    0.440460    1.800114
            23    0       9.512093      5.514392     -0.550189    -1.516233    0.245677   -0.184741
            24    0      11.939195      6.939133     -0.279677     2.298569    3.592924   -2.288434
            25    0      13.216372      7.653338     -0.593483    -1.240172    0.292969    1.199104
            26    0       4.577512      6.938540     -0.618742     0.184133    0.565881    0.881591
            27    0       5.753609      7.760288     -0.507017     1.452422   -0.885310    0.636217
            28    0       7.001133      7.098882     -0.215870    -1.002836   -3.970126   -3.819606
            29    0       8.290088      7.642133     -0.589904    -0.409341   -2.516849    1.805301
            30    0       9.519750      6.876007     -0.585833     0.413596    4.945747    0.564035
            31    0      10.764995      7.741578     -0.485401    -1.824315   -5.150163    0.577083
 Energy
       -237.025916670000
 Feature   mindist	1.303045
END_CFG

BEGIN_CFG
 Size
    31
 Supercell
         9.860000      0.000000      0.000000
         4.930000      8.539010      0.000000
         0.000000      0.000000     30.000000
 AtomData:  id type       cartes_x      cartes_y      cartes_z           fx          fy          fz
             1    0       8.170193      0.603334     -0.653420    -0.713825   -0.639978   -1.586933
             2    0       9.507487      1.111337     -0.721881    -6.752129    6.452676   -0.437704
             3    0       0.773438      0.483930     -0.687173     5.531257   -2.278544    0.450266
             4    0       1.971411      1.323495     -0.541915     1.301766   -3.172732    1.536803
             5    0       3.180330      0.537579     -0.325176     1.313404    2.491603   -2.590686
             6    0       4.457467      1.382557     -0.364228     1.513545   -0.620027    0.087718
             7    0       5.723841      0.629989     -0.599976    -1.181096    2.715427   -0.064009
             8    0       6.926488      1.384373     -0.807371     1.088392   -2.511378    1.349175
             9    0       9.449736      2.620679     -0.760256     4.574141   -1.375724    1.137290
            10    0      10.673606      3.440009     -0.478081    -1.664702    0.024137   -0.862853
            11    0       1.974225      2.728342     -0.294407     2.550745   -1.072783   -0.099908
            12    0       3.233274      3.419956     -0.036066     0.837915    1.406787   -1.639791
            13    0       4.567166      2.863679     -0.193346     0.033751   -0.733394   -0.242891
            14    0       6.097845      3.693772     -0.338324    -3.437087    0.326405   -0.897660
            15    0       7.064169      2.778171     -0.776801    -3.635542   -0.806146    0.948199
            16    0       8.301317      3.269733     -0.733490     1.482378    5.538770    0.046469
            17    0      10.702180      4.888880     -0.454485    -1.884951   -3.420066    0.439022
            18    0      11.865994      5.570864     -0.268023    -1.240733    2.561398   -0.395015
            19    0       3.159126      4.861829     -0.168253     4.225377   -0.105714    0.913623
            20    0       4.333709      5.692531     -0.251069    -1.864712   -2.662138    0.176635
            21    0       6.971455      5.302386     -0.492939     0.166403   -0.249347    0.466456
            22    0       8.279895      4.768980     -0.523534    -0.408988   -1.364446   -0.909664
            23    0       9.475984      5.525774     -0.486620    -1.869644    2.197234    0.437097
            24    0      11.803960      7.012284     -0.371285     2.322345    0.498392   -1.390920
            25    0      13.021244      7.733616     -0.584380    -0.382019    0.045359    1.492245
            26    0       4.375863      7.018525     -0.437451     2.444627   -0.343494   -0.802497
            27    0       5.720558      7.579445     -0.611524    -0.450419    1.289443    0.228337
            28    0       6.932141      6.836227     -0.588132    -0.563472   -1.802556    0.248335
            29    0       8.211536      7.614227     -0.624051    -3.625642    1.223686    2.418538
            30    0       9.389455      6.984283     -0.368215     3.029559   -0.617608   -2.195947
            31    0      10.662233      7.787941     -0.538220    -2.740643   -2.995243    1.740267
 Energy
       -237.047357530000
 Feature   mindist	1.289422
END_CFG

BEGIN_CFG
 Size
    31
 Supercell
         9.860000      0.000000      0.000000
         4.930000      8.539010      0.000000
         0.000000      0.000000     30.000000
 AtomData:  id type       cartes_x      cartes_y      cartes_z           fx          fy          fz
             1    0       6.612026      8.055779      4.098043     1.376074   -3.990358   -0.826172
             2    0       2.920825      0.079871      4.138965     1.637530    4.406451   -0.861204
             3    0       9.187268      8.050731      4.000292    -8.892775   -5.999240   -1.216849
             4    0       5.365839      0.069329      4.193671     7.474918    6.253316    1.711349
             5    0      11.552401      7.927637      4.222185    -1.064486    0.310099    0.472129
             6    0       7.760485      0.139891      4.373450     4.139222   -1.130260   -0.790330
             7    0      14.000735      7.927401      4.280530    -1.373329    1.772335    1.449062
             8    0       0.442859      0.106558      4.143169    -0.790752   -0.762501    0.933005
             9    0       2.843110      1.523928      4.071505     5.540680   -0.734716    1.302328
            10    0       4.157641      2.236224      4.172432    -0.434328    0.278474    0.479773
            11    0       5.397068      1.543469      4.358470     1.050531    1.197272   -1.911737
            12    0       6.680405      2.344572      4.177309    -3.379914   -2.111490    0.461915
            13    0       7.836152      1.555532      4.226738     1.343115    0.849795   -1.049921
            14    0       9.105381      1.961296      3.776775    -0.132141    1.430347    1.400600
            15    0      10.386542      1.476893      4.113003    -3.603800    2.597244   -1.591129
            16    0       1.697830      2.198348      4.034202    -1.370282    3.980981   -0.376553
            17    0       4.148659      3.667060      4.179004     0.640935    0.337039   -2.001265
            18    0       5.377585      4.488581      3.941141    -0.831261   -0.721925    1.798264
            19    0       6.663931      3.746819      3.854348    -2.033133   -1.308465    0.999792
            20    0       7.755625      4.432098      3.550175     3.073135    5.310788   -0.141763
            21    0      10.257245      4.381196      3.870775    -0.039182    2.158656    1.066973
            22    0      11.507265      3.757033      3.937457    -2.546950   -5.099334   -0.221372
            23    0       2.882777      4.341364      3.996938     2.061849    3.368243    2.422154
            24    0       5.338247      5.931844      4.111407     5.113262   -3.057695   -1.770611
            25    0       6.668220      6.674443      3.823302    -4.143401   -2.047274    1.874943
            26    0       7.847150      5.994055      3.664382     1.899333   -4.226880   -0.949949
            27    0       9.167244      6.629744      3.718193    -3.365272    0.496254    1.261945
            28    0      10.216729      5.817286      4.012079     4.387619   -1.685228   -1.493226
            29    0      11.652371      6.537067      4.151890    -5.309926   -1.509810    0.320729
            30    0      12.754839      5.777266      4.325455     3.099710   -0.657818   -0.925354
            31    0       4.190175      6.538931      4.483465    -3.526982    0.295702   -1.827528
 Energy
       -235.457959310000
 Feature   mindist	1.255887
END_CFG

BEGIN_CFG
 Size
    31
 Supercell
         9.860000      0.000000      0.000000
         4.930000      8.539010      0.000000
         0.000000      0.000000     30.000000
 AtomData:  id type       cartes_x      cartes_y      cartes_z           fx          fy          fz
             1    0       8.151745      0.642398     -0.591495     1.833078   -2.618166   -0.519374
             2    0       9.429968      1.246163     -0.614923    -0.823263    2.114934    1.561866
             3    0       0.818923      0.551891     -0.365354    -4.841149   -1.054588   -2.388862
             4    0       1.949802      1.273963     -0.400390     2.776003    1.986213    1.723024
             5    0       3.134894      0.570572     -0.176151     3.418087   -1.011885   -2.408850
             6    0       4.471711      1.362748     -0.288690     1.486194   -2.552834    0.779987
             7    0       5.828154      0.634675     -0.254795    -8.283235   -4.191608   -1.656268
             8    0       6.976542      1.292174     -0.313858    -0.060475    1.358271   -0.804122
             9    0       9.367675      2.707705     -0.503052     1.083461   -0.407483    0.812111
            10    0      10.598112      3.471118     -0.254673     0.242365   -3.147053   -1.956401
            11    0       1.964270      2.705296     -0.322708     1.497385    1.674192    0.781405
            12    0       3.283362      3.435136     -0.219877    -4.720390   -0.403655   -1.579086
            13    0       4.493360      2.799629     -0.380475     2.263360    0.364488    1.298446
            14    0       5.788665      3.548379     -0.365143    -0.375854   -2.150071   -0.766255
            15    0       6.921804      2.678708     -0.349951    -1.188606    2.874735    0.158131
            16    0       8.119785      3.349926     -0.449116     0.909674    1.638992    0.383076
            17    0      10.537542      4.841447     -0.403265     0.829215    1.271705   -0.233449
            18    0      11.802443      5.627726     -0.390568     0.583149   -3.845501   -0.652238
            19    0       3.199696      4.830626     -0.334628     0.565982    2.482592    1.565221
            20    0       4.354784      5.680938     -0.105830    -2.206583   -0.288817   -0.360459
            21    0       6.682952      5.385775     -0.264443    -0.263760   -0.108579   -1.155026
            22    0       7.920110      4.788942     -0.346243     4.453301   -1.120443   -0.920638
            23    0       9.249869      5.451951     -0.588032     0.180707    2.808886    3.300306
            24    0      11.844375      7.006252     -0.580634    -2.156165   -2.330070   -0.145563
            25    0      12.962458      7.746728     -0.691855     3.071367    1.489489    1.013870
            26    0       4.261528      7.025468     -0.429190     5.460119    0.008819   -0.285234
            27    0       5.644801      7.697228     -0.438933    -1.409290   -1.049211    0.550093
            28    0       6.801761      6.872305     -0.431881    -0.854618   -0.164039    0.766106
            29    0       8.051275      7.610946     -0.363147     2.557081    0.806340    1.513287
            30    0       9.427699      6.904072     -0.301144    -5.481383   -0.786017   -3.013642
            31    0      10.607278      7.563473     -0.565907    -0.545759    6.350362    2.638538
 Energy
       -236.205727750000
 Feature   mindist	1.324609
END_CFG

BEGIN_CFG
 Size
    31
 Supercell
         9.860000      0.000000      0.000000
         4.930000      8.539010      0.000000
         0.000000      0.000000     30.000000
 AtomData:  id type       cartes_x      cartes_y      cartes_z           fx          fy          fz
             1    0       6.675322      8.004447      3.955868     1.094817    0.534749    1.220068
             2    0       2.966259      0.222303      4.049767     1.352315   -1.998528    0.133958
             3    0       9.188363      7.983272      4.209692    -5.314546    0.050525   -1.290081
             4    0       5.413054      0.138951      4.378306     1.622196    0.632382   -0.677602
             5    0      11.518502      7.899117      4.403098     2.029562   -0.964580   -0.911508
             6    0       7.825799      0.076268      4.277152     1.849243    1.326034    0.035142
             7    0      14.027831      7.985057      4.254812     0.986600   -1.349300   -0.592441
             8    0       0.546019      0.141213      4.293929    -2.734599    0.255449   -2.243954
             9    0       2.914238      1.621563      4.019108     4.639707    0.417674    0.670157
            10    0       4.268208      2.367970      4.043429    -0.500578   -2.130245   -0.880601
            11    0       5.470701      1.555331      4.124960     0.254660    1.355518    0.012824
            12    0       6.777252      2.214208      3.908743    -7.120381    3.169238    1.541179
            13    0       7.898597      1.566464      4.059997     3.695854   -2.349962    0.529784
            14    0       9.084688      2.311572      3.957675     4.463911   -2.252544    1.199653
            15    0      10.390973      1.569379      4.082282    -2.848423    1.604428   -0.081387
            16    0       1.729619      2.285500      3.967232    -0.593318    0.864800   -0.353570
            17    0       4.363228      3.779086      3.811778    -6.106034   -4.518860    0.950468
            18    0       5.547522      4.414372      3.787464     1.161514    1.496391    1.416830
            19    0       6.810431      3.673073      3.953153    -0.362244    0.153239   -3.323377
            20    0       7.884039      4.446489      3.433340    -0.541407    0.045633    0.915029
            21    0      10.340657      4.328789      3.788081    -0.666523    1.166242    0.549066